/*--------------------------------*- C++ -*----------------------------------*\
| =========                 |                                                 |
| \\      /  F ield         | OpenFOAM: The Open Source CFD Toolbox           |
|  \\    /   O peration     | Version:  4.1                                   |
|   \\  /    A nd           | Web:      www.OpenFOAM.org                      |
|    \\/     M anipulation  |                                                 |
\*---------------------------------------------------------------------------*/
FoamFile
{
    version     2.0;
    format      ascii;
    class       volScalarField;
    location    "0.019";
    object      alphat;
}
// * * * * * * * * * * * * * * * * * * * * * * * * * * * * * * * * * * * * * //

dimensions      [1 -1 -1 0 0 0 0];

internalField   nonuniform List<scalar> 
278640
(
0.0458034
0.0515341
0.0479778
0.0477489
0.0476454
0.047624
0.0476622
0.04773
0.0477968
0.0478372
0.047837
0.0477966
0.0477299
0.0476621
0.0476238
0.0476452
0.0477485
0.0479774
0.0515337
0.045803
0.0558471
0.0638242
0.0589333
0.0586364
0.058499
0.0584677
0.0585149
0.0586003
0.0586851
0.0587364
0.0587364
0.0586851
0.0586003
0.0585149
0.0584677
0.0584991
0.0586364
0.0589334
0.0638243
0.0558472
0.0184781
0.0210359
0.0193237
0.0193223
0.0194972
0.0198076
0.0202202
0.0207379
0.0211235
0.0212957
0.0212878
0.0213279
0.0214305
0.021555
0.0216822
0.0216937
0.0215986
0.0215274
0.0232113
0.0202076
0.0587121
0.0667292
0.0617406
0.0614016
0.0612449
0.0612094
0.0612636
0.0613635
0.0614621
0.061522
0.061522
0.0614621
0.0613634
0.0612635
0.0612094
0.0612449
0.0614016
0.0617406
0.0667292
0.058712
0.0776355
0.0880164
0.0817011
0.0813969
0.0813927
0.0815147
0.0816586
0.0817549
0.0817359
0.0815769
0.0813241
0.0810617
0.0809429
0.0810855
0.0815474
0.0822918
0.083233
0.0843908
0.0915653
0.0811109
0.040461
0.0459208
0.042606
0.0424673
0.0424376
0.0424715
0.0425469
0.0426359
0.0427118
0.0427538
0.0427504
0.0427019
0.04262
0.0425263
0.0424482
0.0424137
0.0424444
0.0425847
0.0458994
0.0404416
0.0453396
0.0517255
0.0478331
0.0476026
0.0475145
0.0475114
0.0475694
0.0476553
0.0477364
0.0477851
0.0477859
0.0477381
0.0476577
0.0475716
0.0475131
0.047516
0.0476042
0.0478347
0.0517281
0.0453408
0.0439365
0.0504577
0.0464377
0.046234
0.046219
0.0463074
0.0464627
0.046639
0.0467905
0.0468792
0.0468824
0.0468002
0.0466543
0.046483
0.0463334
0.046252
0.0462759
0.0464885
0.0505156
0.0439982
0.0812769
0.0913882
0.0850788
0.0845783
0.0843682
0.084336
0.0844359
0.0846026
0.0847649
0.0848627
0.0848627
0.0847649
0.0846025
0.0844358
0.084336
0.0843681
0.0845782
0.0850787
0.0913881
0.0812768
0.07654
0.0864231
0.0800054
0.0794515
0.0792438
0.0792515
0.0794162
0.0796541
0.0798783
0.0800127
0.0800127
0.0798783
0.0796541
0.0794154
0.0792515
0.0792437
0.0794515
0.0800053
0.086423
0.0765399
0.0465565
0.0527586
0.048954
0.0487381
0.0486654
0.048685
0.0487708
0.0488856
0.0489903
0.0490521
0.0490524
0.0489912
0.048887
0.0487726
0.0486872
0.0486677
0.0487405
0.0489562
0.0527609
0.0465582
0.0355175
0.0406247
0.0375227
0.0374588
0.0375112
0.0376177
0.0377438
0.0378601
0.0379452
0.0379884
0.0379856
0.0379436
0.0378799
0.0378229
0.0378051
0.0378555
0.0379877
0.0382274
0.0414964
0.036378
0.042759
0.0492218
0.0451975
0.0450304
0.0450346
0.0451365
0.0452988
0.0454786
0.0456353
0.0457362
0.0457625
0.0457122
0.0456006
0.0454566
0.0453188
0.0452299
0.0452286
0.0453923
0.0494259
0.0429333
0.0504295
0.0578142
0.0531198
0.0528035
0.0527069
0.0527548
0.0529054
0.0531
0.0532761
0.0533793
0.053378
0.0532723
0.0530935
0.0528963
0.0527436
0.052694
0.0527887
0.0531039
0.0577958
0.0504134
0.0481913
0.0551287
0.0506359
0.0504043
0.0503963
0.0505222
0.0507332
0.0509663
0.051162
0.0512745
0.0512763
0.0511667
0.0509707
0.0507327
0.0505123
0.0503763
0.0503769
0.0506058
0.0550973
0.0481654
0.0478525
0.0544398
0.0504104
0.0501589
0.0500615
0.0500555
0.0501158
0.0502079
0.0502954
0.0503476
0.0503476
0.0502954
0.0502082
0.0501158
0.0500555
0.0500615
0.0501589
0.0504104
0.0544398
0.0478529
0.063624
0.0726894
0.0668675
0.0664505
0.0663334
0.0664073
0.066618
0.0668874
0.0671313
0.0672747
0.0672747
0.0671313
0.0668874
0.066618
0.0664073
0.0663333
0.0664505
0.0668674
0.0726894
0.063624
0.0505107
0.0589447
0.0540485
0.0539141
0.0539025
0.0539772
0.0541669
0.0544544
0.0547299
0.0549224
0.0549737
0.0549093
0.0546967
0.0543011
0.053713
0.0530129
0.0523279
0.0518791
0.0562875
0.0480152
0.0458373
0.0528414
0.0485449
0.0483511
0.048351
0.0484563
0.0486238
0.0488028
0.048946
0.0490169
0.0489955
0.0488819
0.0486971
0.0484803
0.0482802
0.0481459
0.0481179
0.0482837
0.0525433
0.0455516
0.0664227
0.0760016
0.0699344
0.0695232
0.0694092
0.0694771
0.0696741
0.0699254
0.0701521
0.0702854
0.0702854
0.0701521
0.0699253
0.069674
0.0694771
0.0694092
0.0695232
0.0699344
0.0760015
0.0664227
0.0542078
0.0617972
0.0567327
0.0563308
0.0562404
0.0563483
0.0565966
0.0569055
0.0571835
0.0573479
0.057348
0.0571835
0.0569056
0.0565968
0.0563481
0.0562403
0.0563311
0.056733
0.0617976
0.0542078
0.0548965
0.0634282
0.0580384
0.0576811
0.0575707
0.0576195
0.057783
0.0579967
0.0581906
0.0583053
0.0583053
0.0581906
0.0579967
0.057783
0.0576196
0.0575708
0.0576811
0.0580384
0.0634283
0.0548965
0.0503075
0.0582292
0.0531612
0.0528527
0.052792
0.052883
0.0530786
0.0533153
0.0535246
0.0536473
0.0536475
0.0535253
0.0533162
0.0530796
0.0528842
0.0527931
0.0528538
0.0531624
0.0582304
0.0503087
0.0511801
0.0596739
0.0542856
0.0539573
0.0539009
0.0540008
0.054209
0.0544588
0.0546789
0.0548075
0.0548075
0.0546789
0.0544587
0.0542089
0.0540007
0.0539008
0.0539573
0.0542859
0.0596738
0.05118
0.0448543
0.0525253
0.0476359
0.0474164
0.0474182
0.0475418
0.0477404
0.047958
0.048139
0.0482371
0.0482252
0.0481031
0.0478987
0.0476592
0.0474431
0.0473088
0.047304
0.0475256
0.0524099
0.0447575
0.0963821
0.11025
0.100972
0.100063
0.0998279
0.0999879
0.100437
0.101021
0.101558
0.101879
0.101879
0.101558
0.101021
0.100437
0.0999879
0.0998278
0.100063
0.100972
0.11025
0.0963821
0.0588213
0.0681038
0.0622022
0.0619126
0.0619207
0.0620694
0.0623225
0.0626269
0.062892
0.0630635
0.0631034
0.0630072
0.0627505
0.0623309
0.0617923
0.0612344
0.0607676
0.0606057
0.0660322
0.056731
0.0553086
0.0620913
0.057738
0.0574752
0.0574351
0.0574915
0.057644
0.057881
0.0581603
0.058392
0.0584761
0.0583759
0.0581427
0.0578509
0.0575599
0.0573305
0.0572126
0.0573243
0.0615324
0.0547156
0.0777733
0.0894801
0.0820282
0.0813991
0.0812102
0.0812823
0.0815459
0.0818973
0.0822215
0.0824148
0.0824148
0.0822215
0.0818972
0.0815459
0.0812822
0.0812101
0.081399
0.0820282
0.0894801
0.0777732
0.0655436
0.0754072
0.0688421
0.0683173
0.0682158
0.0683815
0.0687403
0.0691835
0.0695842
0.0698217
0.0698216
0.0695842
0.0691835
0.0687403
0.0683815
0.0682157
0.0683173
0.0688421
0.0754072
0.0655436
0.0461517
0.0532481
0.048541
0.0482905
0.0483071
0.0484862
0.0487699
0.0490847
0.0493532
0.0495071
0.0495048
0.0493461
0.0490714
0.048749
0.0484565
0.0482677
0.0482414
0.048483
0.0531783
0.0460888
0.0442523
0.0508393
0.0467171
0.0465189
0.046514
0.0466244
0.0468118
0.0470266
0.0472167
0.0473375
0.0473611
0.0472849
0.0471312
0.0469423
0.0467709
0.0466684
0.046676
0.0468748
0.0510123
0.0443984
0.0419841
0.0484121
0.0440249
0.0437079
0.0435889
0.0435997
0.0437621
0.0440201
0.044324
0.0446557
0.0450128
0.0454194
0.0457706
0.0459932
0.0460676
0.0461062
0.0462093
0.0465199
0.0511082
0.0442498
0.051197
0.059259
0.0541661
0.0538432
0.0537681
0.0538489
0.0540419
0.0542814
0.0544961
0.0546227
0.0546227
0.0544961
0.0542815
0.0540419
0.053849
0.0537682
0.0538436
0.0541662
0.0592591
0.0511971
0.0574025
0.0654459
0.0598359
0.0593214
0.0592367
0.0594324
0.0598331
0.0603274
0.060778
0.0610475
0.0610475
0.0607777
0.0603272
0.0598326
0.059432
0.0592364
0.0593212
0.0598357
0.0654458
0.057402
0.056004
0.0645431
0.0587376
0.0582257
0.0581072
0.0582441
0.0585689
0.0589809
0.0593576
0.0595827
0.059582
0.0593561
0.0589784
0.0585657
0.0582401
0.0581025
0.0582204
0.0587318
0.0645363
0.0559982
0.0486835
0.0570837
0.0516822
0.0513423
0.051304
0.0514383
0.0516907
0.051986
0.0522434
0.0523901
0.0523836
0.052224
0.051955
0.0516489
0.0513867
0.0512433
0.0512732
0.0516057
0.0569951
0.0486046
0.110508
0.124972
0.114294
0.113019
0.112822
0.113286
0.114248
0.115454
0.116574
0.117251
0.117251
0.116574
0.115454
0.114248
0.113286
0.112821
0.113019
0.114294
0.124971
0.110508
0.0869904
0.0960915
0.0890413
0.0878608
0.0875455
0.0877806
0.0884477
0.0893618
0.0902603
0.0908489
0.0909208
0.0904731
0.0897078
0.0889165
0.0883624
0.0882321
0.0886457
0.0899195
0.097091
0.087937
0.320562
0.319428
0.320458
0.320654
0.320353
0.319781
0.319111
0.318477
0.317986
0.317704
0.317668
0.317876
0.318295
0.318858
0.319462
0.319971
0.320218
0.31998
0.318918
0.320042
0.372555
0.365179
0.367829
0.368736
0.369146
0.369313
0.369343
0.369298
0.369228
0.369165
0.369129
0.36912
0.369122
0.369104
0.369017
0.368799
0.368345
0.367407
0.364743
0.372074
0.478467
0.471391
0.472766
0.472076
0.470601
0.468943
0.467499
0.466463
0.46586
0.465606
0.465619
0.465898
0.466522
0.467576
0.469038
0.470712
0.472196
0.472897
0.471527
0.478615
0.240028
0.234774
0.23635
0.235942
0.234986
0.233985
0.233149
0.232553
0.232192
0.232024
0.232014
0.232164
0.232508
0.233089
0.233912
0.234902
0.235848
0.236249
0.234672
0.239917
0.126762
0.140484
0.131415
0.130044
0.12931
0.128961
0.128948
0.129168
0.129483
0.129752
0.129869
0.129802
0.129605
0.129401
0.129346
0.12958
0.130189
0.131453
0.140485
0.126645
0.169871
0.17026
0.16624
0.162182
0.15881
0.156386
0.154887
0.15412
0.153806
0.153664
0.153519
0.15337
0.153384
0.153843
0.155029
0.157147
0.160234
0.164052
0.167897
0.167458
0.140215
0.139655
0.139082
0.138235
0.137449
0.13688
0.136571
0.136484
0.13653
0.136611
0.136662
0.136685
0.136746
0.136942
0.137364
0.138048
0.138944
0.139889
0.140535
0.141141
0.108301
0.165043
0.151715
0.141903
0.135358
0.131182
0.128701
0.127377
0.126772
0.126563
0.126595
0.12689
0.12764
0.129196
0.132003
0.13658
0.143559
0.153763
0.167346
0.110841
0.335488
0.333404
0.332463
0.330766
0.328931
0.327362
0.326268
0.325673
0.325455
0.325433
0.325473
0.325574
0.325867
0.326533
0.327691
0.329317
0.3312
0.332938
0.333902
0.336016
0.317302
0.313567
0.315168
0.315852
0.316231
0.316468
0.316638
0.316778
0.316906
0.317032
0.317158
0.317281
0.317392
0.317478
0.317512
0.317451
0.317218
0.316648
0.315107
0.318975
0.222535
0.222942
0.22317
0.223244
0.223186
0.223057
0.222909
0.222776
0.222684
0.222645
0.222667
0.222748
0.222881
0.223054
0.223238
0.223398
0.223483
0.223429
0.223214
0.222815
0.114844
0.10756
0.10854
0.104488
0.100394
0.0977549
0.0967491
0.0969854
0.0978131
0.0985248
0.0986296
0.0981209
0.0974799
0.0974161
0.0985898
0.101399
0.10566
0.109851
0.108951
0.116301
0.118832
0.13359
0.123296
0.121865
0.121447
0.121657
0.122338
0.12325
0.124107
0.124641
0.124685
0.124234
0.123448
0.122589
0.121937
0.121735
0.122147
0.123573
0.133935
0.119054
0.083899
0.0919598
0.0847063
0.0835062
0.0834287
0.0841111
0.0853876
0.0869998
0.0885369
0.0894809
0.0894383
0.0884121
0.0868038
0.0851416
0.0838456
0.0831766
0.0832954
0.084551
0.0918732
0.0838119
0.279524
0.276282
0.275409
0.27284
0.269745
0.266999
0.26506
0.264009
0.263634
0.263587
0.263603
0.263684
0.264088
0.265165
0.267131
0.269908
0.273037
0.275642
0.27654
0.279826
0.114613
0.114184
0.114337
0.113984
0.113489
0.11302
0.112654
0.112412
0.112281
0.112232
0.112245
0.112322
0.112483
0.112758
0.113159
0.113664
0.114195
0.114578
0.114447
0.114882
0.429384
0.429848
0.430352
0.430848
0.431282
0.431672
0.432016
0.432305
0.432528
0.432684
0.432772
0.43278
0.432639
0.432362
0.432045
0.431697
0.431303
0.430853
0.430353
0.429961
0.234202
0.233202
0.233225
0.232742
0.232091
0.231472
0.23099
0.230676
0.23051
0.230447
0.230453
0.230527
0.230704
0.231027
0.231515
0.232138
0.23279
0.23327
0.233244
0.234247
0.363292
0.360957
0.361425
0.360752
0.359481
0.358043
0.356741
0.355742
0.355095
0.354778
0.354761
0.355045
0.355661
0.356631
0.357906
0.35932
0.36057
0.361226
0.360749
0.363063
0.246657
0.245106
0.245449
0.245049
0.244411
0.243833
0.243441
0.243247
0.243192
0.243195
0.2432
0.243207
0.24327
0.243472
0.24387
0.24445
0.245087
0.245484
0.245138
0.246687
0.136189
0.163834
0.155891
0.14951
0.144869
0.141732
0.13982
0.138829
0.138446
0.138397
0.138522
0.138816
0.139426
0.140623
0.142724
0.146038
0.150848
0.157394
0.165483
0.137676
0.416167
0.415676
0.417093
0.417936
0.418326
0.418406
0.418292
0.418086
0.417877
0.417737
0.417705
0.41778
0.417926
0.418077
0.418142
0.418019
0.417591
0.416721
0.415281
0.415781
0.127713
0.127863
0.127606
0.127158
0.126671
0.126267
0.125995
0.125846
0.125773
0.125722
0.125656
0.125577
0.125525
0.125556
0.125722
0.126032
0.12644
0.126827
0.127043
0.126875
0.453825
0.445749
0.447287
0.44652
0.444826
0.442938
0.441322
0.44019
0.439537
0.439246
0.439207
0.439424
0.440013
0.441097
0.442677
0.444539
0.446209
0.446966
0.445425
0.453464
0.340591
0.329131
0.331715
0.331569
0.330582
0.329417
0.32844
0.327793
0.327446
0.32729
0.327234
0.327281
0.327529
0.32809
0.328996
0.330107
0.331049
0.331176
0.328597
0.340025
0.272977
0.267581
0.269016
0.268635
0.267609
0.266508
0.265595
0.264963
0.264595
0.264423
0.264393
0.264506
0.264818
0.265399
0.266266
0.267329
0.268324
0.268685
0.267239
0.27262
0.331987
0.329226
0.330397
0.330831
0.330921
0.330854
0.330735
0.330625
0.330563
0.330568
0.330647
0.330796
0.331006
0.33125
0.331488
0.331656
0.331648
0.331277
0.330141
0.332981
0.372833
0.371315
0.372684
0.373454
0.373866
0.374065
0.374135
0.374134
0.374109
0.374095
0.374112
0.374157
0.374201
0.374211
0.374151
0.373962
0.373557
0.372796
0.371432
0.37296
0.961078
0.925961
0.842489
0.781592
0.753494
0.761403
0.804224
0.87489
0.955681
1.01625
1.01538
0.953578
0.872667
0.802293
0.759599
0.751548
0.779301
0.839524
0.921883
0.955904
0.355384
0.349308
0.338693
0.328875
0.321561
0.31723
0.315679
0.316255
0.31788
0.319202
0.319199
0.317854
0.316167
0.315501
0.316961
0.321211
0.328448
0.338185
0.348707
0.354772
0.727386
0.615004
0.529137
0.47338
0.453823
0.470193
0.518931
0.589745
0.661823
0.708293
0.707532
0.659366
0.585955
0.514714
0.465897
0.449221
0.468168
0.523489
0.609746
0.722999
0.500625
0.49511
0.495753
0.495299
0.494484
0.493694
0.493139
0.492874
0.492822
0.492853
0.492873
0.492877
0.492964
0.493259
0.493837
0.494644
0.495462
0.495933
0.495303
0.500866
0.0611894
0.0601673
0.0606529
0.0605098
0.0602921
0.0601127
0.0599949
0.0599262
0.0598784
0.059822
0.0597397
0.0596331
0.0595226
0.0594392
0.0594093
0.0594427
0.0595177
0.059532
0.0589509
0.0599055
0.448474
0.44645
0.447697
0.448454
0.448878
0.449071
0.449105
0.449043
0.448943
0.448846
0.44878
0.448747
0.448723
0.44867
0.448529
0.448242
0.447735
0.446913
0.445614
0.447622
0.0485733
0.0551624
0.051233
0.0509849
0.0508877
0.0508573
0.0508882
0.0509606
0.0510376
0.0510799
0.0510646
0.0509988
0.0509207
0.0508783
0.050913
0.0510608
0.0513359
0.0517974
0.0559323
0.0494175
0.44228
0.436598
0.438437
0.439183
0.439491
0.439575
0.43954
0.439448
0.43934
0.43924
0.439162
0.439105
0.43906
0.439006
0.438906
0.438701
0.43829
0.437478
0.435598
0.4413
0.0606678
0.058484
0.0594333
0.0588299
0.0582733
0.0580022
0.0579885
0.0581322
0.0583069
0.0583973
0.0583364
0.0581287
0.0578453
0.0575953
0.0574923
0.0576282
0.0580298
0.0584736
0.057403
0.0594563
0.492115
0.486627
0.487094
0.486021
0.48427
0.482409
0.480816
0.479668
0.478983
0.478681
0.478692
0.479013
0.479717
0.480881
0.482491
0.484365
0.48612
0.487205
0.486739
0.492255
0.154487
0.17886
0.160277
0.156731
0.155608
0.155638
0.156481
0.157793
0.159138
0.160024
0.160095
0.159327
0.158033
0.156677
0.155687
0.155424
0.156263
0.159505
0.177744
0.1534
0.302879
0.301996
0.302431
0.302322
0.301917
0.301399
0.300894
0.300477
0.300189
0.300041
0.300038
0.300182
0.300471
0.300888
0.301396
0.301917
0.302327
0.302441
0.302007
0.302896
0.346037
0.345656
0.34577
0.345289
0.344429
0.343446
0.342529
0.341795
0.341295
0.341038
0.341024
0.341254
0.341735
0.342453
0.343354
0.344323
0.345171
0.345643
0.345517
0.345905
0.657526
0.680821
0.647036
0.621553
0.615448
0.635861
0.688192
0.774735
0.888623
1.00129
0.997822
0.884981
0.772242
0.686754
0.635109
0.615113
0.621539
0.647011
0.680607
0.65736
0.289941
0.289815
0.290131
0.290078
0.289749
0.289286
0.2888
0.288373
0.288056
0.287876
0.287846
0.287964
0.288218
0.288584
0.289018
0.289438
0.289731
0.28976
0.289425
0.289547
0.189736
0.183567
0.181598
0.179827
0.17958
0.182111
0.187905
0.19709
0.209651
0.223616
0.223407
0.209099
0.196257
0.186833
0.180841
0.178155
0.178289
0.179982
0.181905
0.188335
0.212412
0.209615
0.209544
0.208214
0.206629
0.205384
0.204681
0.204467
0.204531
0.20462
0.204559
0.204348
0.204165
0.204267
0.204867
0.206021
0.207531
0.2088
0.208827
0.211595
0.926925
0.946712
0.88236
0.833685
0.813398
0.828016
0.868686
0.906012
0.92563
0.938852
0.938364
0.924555
0.905048
0.869018
0.830004
0.81676
0.838392
0.887661
0.951024
0.928661
0.238344
0.236429
0.234277
0.231438
0.228924
0.227305
0.226699
0.226903
0.227486
0.227934
0.227888
0.227347
0.226671
0.226374
0.226885
0.22841
0.230833
0.23359
0.235677
0.237561
0.0431455
0.0490251
0.0462922
0.0459382
0.0462049
0.0467089
0.0474398
0.0482977
0.04909
0.0496007
0.0496829
0.049331
0.0486832
0.0479539
0.0473379
0.046935
0.0467554
0.0471913
0.0500148
0.0440522
0.533982
0.527748
0.523455
0.517939
0.51283
0.509136
0.507189
0.506786
0.507287
0.50788
0.50799
0.507619
0.507338
0.507946
0.510088
0.513975
0.519261
0.524956
0.529328
0.53568
0.50205
0.495986
0.498288
0.499261
0.499419
0.499109
0.49856
0.497953
0.497432
0.497094
0.496994
0.497135
0.497468
0.497894
0.498278
0.49844
0.498136
0.497086
0.494746
0.500849
0.421981
0.419341
0.42017
0.420372
0.420146
0.419718
0.419233
0.418797
0.418482
0.418332
0.418365
0.418579
0.418957
0.419454
0.419998
0.420477
0.420737
0.420577
0.419767
0.422471
0.680158
0.669259
0.667098
0.662418
0.657089
0.652396
0.649083
0.647296
0.64665
0.64653
0.646474
0.646496
0.647072
0.648838
0.652173
0.656932
0.662322
0.667135
0.669363
0.68034
1.0537
1.02583
1.00652
0.974364
0.940129
0.933974
0.940551
0.940752
0.944199
0.949029
0.948564
0.942967
0.939497
0.940897
0.935504
0.941853
0.976323
1.00492
1.02448
1.05276
0.0751119
0.0851626
0.0782237
0.0773922
0.0772062
0.0773951
0.0778547
0.0784379
0.0789669
0.0792685
0.0792408
0.0789063
0.0784004
0.0779073
0.077593
0.0775737
0.0779207
0.078886
0.0859466
0.0758797
0.541558
0.531067
0.531076
0.528173
0.523974
0.519797
0.51644
0.514203
0.512981
0.512485
0.512479
0.512977
0.514226
0.516531
0.519993
0.524298
0.528604
0.531642
0.531713
0.542299
0.400637
0.400448
0.400627
0.400464
0.400006
0.399411
0.398815
0.398319
0.397986
0.39785
0.397931
0.398231
0.398744
0.399409
0.40015
0.400885
0.40147
0.401752
0.401636
0.401897
0.364265
0.354514
0.349018
0.340091
0.330789
0.323479
0.319148
0.317597
0.317772
0.318291
0.318172
0.317445
0.317119
0.3185
0.322606
0.329666
0.3387
0.347412
0.352683
0.362254
0.810791
0.761972
0.716088
0.665696
0.625804
0.602909
0.596753
0.603293
0.616047
0.626261
0.626223
0.616025
0.603451
0.597211
0.603761
0.627131
0.667482
0.71828
0.763549
0.811965
0.0615434
0.0680872
0.0662482
0.0659285
0.0663782
0.0671401
0.0681246
0.0691928
0.0701166
0.0706545
0.0706572
0.0701281
0.0692221
0.0681818
0.0672332
0.066511
0.0661009
0.0664537
0.0683079
0.0617759
0.314309
0.310773
0.311781
0.31167
0.31133
0.311015
0.310761
0.310566
0.310432
0.31036
0.310353
0.310411
0.310531
0.310712
0.310953
0.311255
0.311584
0.311685
0.310671
0.314205
0.000778349
0.000121951
0.00142961
0.00045007
6.38695e-05
0.00201646
0.0015089
0.000479912
0.00108604
9.51332e-05
0.00174374
0.00105122
0.000144983
0.000785301
0.00212934
0.000738479
0.00181462
0.000618607
0.00170072
0.000204626
1.31112
1.344
1.30109
1.27625
1.2656
1.26329
1.26531
1.26902
1.27258
1.27472
1.27471
1.27252
1.26884
1.26495
1.26271
1.26477
1.27516
1.29969
1.34223
1.30915
0.769096
0.798166
0.782595
0.774137
0.769443
0.767222
0.766479
0.766501
0.766772
0.766962
0.766878
0.766522
0.766086
0.765919
0.766531
0.768653
0.773289
0.781672
0.797151
0.768064
0.528354
0.527928
0.52901
0.529987
0.530858
0.531674
0.532419
0.53306
0.533553
0.533882
0.534022
0.53397
0.533565
0.532867
0.532166
0.531427
0.530627
0.529794
0.528832
0.529497
0.393639
0.615009
0.560583
0.520637
0.500898
0.491926
0.488119
0.486696
0.486276
0.486211
0.486221
0.486295
0.486689
0.488042
0.491741
0.500604
0.520297
0.56025
0.614758
0.393557
0.0549752
0.0544121
0.0548076
0.0547366
0.0546445
0.0545711
0.0545168
0.0544787
0.0544531
0.0544371
0.0544299
0.0544314
0.0544436
0.0544693
0.0545131
0.0545775
0.0546625
0.0547284
0.0543298
0.0548906
0.226298
0.329239
0.308328
0.294832
0.287889
0.284404
0.282652
0.281777
0.281351
0.281171
0.281154
0.2813
0.281693
0.282535
0.284254
0.287708
0.294627
0.308091
0.328967
0.226074
0.0901234
0.09115
0.09075
0.090639
0.0906373
0.0906766
0.0907379
0.0908029
0.0908536
0.0908762
0.0908643
0.0908182
0.0907448
0.0906584
0.0905779
0.0905212
0.0905082
0.0906073
0.0909972
0.0899717
0.0451957
0.0479957
0.0474126
0.0473536
0.0474417
0.0475507
0.0476103
0.0475947
0.0475554
0.047545
0.0475941
0.0476557
0.0477124
0.0477845
0.0478421
0.0478822
0.0478747
0.0479265
0.0484753
0.0456243
0.572556
0.565894
0.568769
0.57045
0.571568
0.572287
0.572701
0.572885
0.572926
0.5729
0.572831
0.572722
0.572553
0.572254
0.571743
0.57094
0.569743
0.568032
0.565155
0.571835
0.267197
0.274729
0.277303
0.278514
0.279162
0.279516
0.27974
0.279907
0.280027
0.280069
0.280026
0.279898
0.279698
0.27946
0.279172
0.278766
0.278078
0.276844
0.274265
0.266693
0.0572504
0.0580172
0.0577581
0.0576958
0.0576626
0.057646
0.0576397
0.0576385
0.0576385
0.0576361
0.0576312
0.0576239
0.0576145
0.0576071
0.0576055
0.0576154
0.0576429
0.0577009
0.057957
0.0571895
0.0775114
0.0811152
0.07986
0.0794707
0.079296
0.0792072
0.0791648
0.0791469
0.0791389
0.0791326
0.079124
0.0791134
0.0791051
0.0791078
0.0791365
0.0792135
0.0793781
0.0797601
0.0810098
0.0774062
0.318452
0.322959
0.321439
0.320975
0.32083
0.320781
0.320765
0.320757
0.320747
0.320732
0.32071
0.32068
0.320647
0.320616
0.320595
0.320611
0.320728
0.32117
0.322675
0.318164
0.171453
0.177045
0.175023
0.174255
0.17414
0.174136
0.17416
0.174212
0.174294
0.17438
0.17448
0.174576
0.174679
0.174798
0.174927
0.1751
0.175354
0.176217
0.178315
0.172712
0.909274
0.928311
0.909367
0.896741
0.888553
0.883777
0.881247
0.880056
0.8796
0.879527
0.879692
0.880096
0.880863
0.882327
0.885088
0.890056
0.898423
0.911181
0.930133
0.911062
0.120431
0.123415
0.122774
0.122818
0.122881
0.122913
0.122921
0.122914
0.122898
0.122877
0.122856
0.122838
0.122827
0.122816
0.122795
0.122752
0.122676
0.122624
0.123261
0.120281
0.219567
0.226124
0.221903
0.220496
0.220747
0.221392
0.222084
0.222781
0.223414
0.223809
0.2238
0.223387
0.222744
0.222043
0.221353
0.220711
0.220459
0.221868
0.226096
0.219412
0.30692
0.30486
0.307488
0.308712
0.308967
0.308667
0.308116
0.307536
0.307069
0.306791
0.306729
0.306884
0.307235
0.30771
0.308171
0.308397
0.308085
0.306821
0.30417
0.306199
0.274663
0.277216
0.277033
0.277208
0.277372
0.277482
0.277546
0.277573
0.277575
0.277563
0.277542
0.277515
0.277476
0.277419
0.27733
0.277201
0.277024
0.276839
0.277017
0.274461
0.701827
0.769814
0.746403
0.732939
0.727697
0.726248
0.726511
0.727459
0.728459
0.729089
0.729073
0.728413
0.727394
0.726452
0.726213
0.72771
0.733039
0.746509
0.769845
0.70193
0.199301
0.196058
0.200068
0.200938
0.200447
0.199387
0.198198
0.197156
0.196406
0.196006
0.195972
0.196305
0.196991
0.197973
0.199108
0.200124
0.200579
0.199684
0.195662
0.198888
0.0303562
0.0340108
0.0332473
0.0332025
0.0330744
0.032866
0.0327382
0.0327596
0.0328521
0.0328728
0.0327883
0.0326684
0.0325572
0.0324368
0.0323282
0.0322774
0.0322754
0.0323598
0.0332208
0.0296966
0.095255
0.102654
0.10102
0.100537
0.100447
0.100385
0.100343
0.100322
0.100313
0.100308
0.100294
0.100272
0.100254
0.10025
0.100268
0.100309
0.100381
0.100849
0.102473
0.0950787
1.26503
1.22738
1.24511
1.24961
1.24997
1.24645
1.2413
1.23641
1.23276
1.23084
1.23094
1.23307
1.237
1.24225
1.24778
1.25163
1.25131
1.24697
1.22958
1.2638
1.04748
1.03588
1.04126
1.04503
1.04835
1.05152
1.05449
1.05704
1.05893
1.05992
1.05989
1.05885
1.05692
1.05434
1.05135
1.04817
1.04483
1.04108
1.03574
1.04739
0.105884
0.106679
0.106541
0.106514
0.106519
0.106542
0.106571
0.106595
0.106587
0.106558
0.106499
0.106439
0.106415
0.106416
0.106406
0.106393
0.106396
0.106436
0.106576
0.105786
0.291141
0.297885
0.296593
0.296349
0.296408
0.296502
0.296584
0.29664
0.29667
0.296672
0.296647
0.296597
0.296518
0.296415
0.296289
0.296153
0.29606
0.296274
0.297545
0.2908
0.350068
0.350318
0.350183
0.350128
0.350076
0.350017
0.349942
0.34985
0.349739
0.349606
0.349454
0.349289
0.349112
0.348934
0.348761
0.348605
0.348476
0.348391
0.348431
0.348132
0.694202
0.69916
0.696283
0.696033
0.696461
0.697108
0.697772
0.698381
0.69892
0.699393
0.699795
0.700108
0.700305
0.700356
0.700266
0.700102
0.700068
0.700628
0.703719
0.698877
0.741376
0.756477
0.749395
0.7481
0.74818
0.748776
0.749556
0.750384
0.751197
0.751951
0.752616
0.75317
0.753597
0.753895
0.754101
0.75434
0.754942
0.756784
0.764322
0.749141
0.438284
0.438933
0.438918
0.439115
0.43936
0.439621
0.439875
0.440103
0.440286
0.440417
0.440486
0.440495
0.440448
0.440355
0.44023
0.440091
0.439954
0.439844
0.439922
0.439301
0.297989
0.328406
0.314456
0.311887
0.312019
0.312354
0.312656
0.312904
0.313081
0.313174
0.313192
0.313149
0.313061
0.312928
0.312748
0.312523
0.312491
0.315191
0.329341
0.298731
0.550314
0.551822
0.551878
0.552309
0.552792
0.553287
0.553765
0.554204
0.55459
0.554909
0.555157
0.555336
0.555443
0.555487
0.555474
0.555411
0.555314
0.555198
0.555365
0.553973
0.211953
0.221242
0.217119
0.216112
0.21593
0.216015
0.216261
0.21662
0.217183
0.217854
0.218454
0.218773
0.218784
0.218712
0.218801
0.219096
0.219429
0.220371
0.2245
0.214935
0.377636
0.379182
0.378606
0.378509
0.378449
0.378396
0.378339
0.378277
0.378209
0.378135
0.378056
0.377974
0.377889
0.37781
0.377735
0.377674
0.377638
0.377659
0.378183
0.376612
0.0512354
0.0512254
0.0510505
0.0508559
0.0506309
0.0504197
0.0502164
0.0500272
0.0498667
0.0497723
0.049728
0.0497636
0.0498731
0.0500247
0.0502026
0.0504096
0.0506113
0.0508009
0.0509702
0.0509928
0.390218
0.392872
0.391945
0.391866
0.391852
0.391842
0.391815
0.391767
0.391697
0.391611
0.39151
0.391399
0.391276
0.391142
0.391
0.390857
0.390731
0.390692
0.391508
0.388887
0.427413
0.42959
0.429076
0.429243
0.429499
0.429802
0.430139
0.430496
0.430864
0.431229
0.431576
0.431895
0.432177
0.432414
0.432604
0.432746
0.432852
0.432957
0.43366
0.431557
0.011202
0.0112153
0.0111693
0.0111237
0.01107
0.0110127
0.0109564
0.0109055
0.010864
0.0108358
0.0108228
0.0108258
0.0108443
0.0108753
0.010915
0.0109592
0.0110028
0.0110412
0.011082
0.0110675
0.550258
0.552819
0.55214
0.552159
0.55227
0.552419
0.552582
0.552747
0.552911
0.553063
0.553203
0.553327
0.553435
0.553527
0.553607
0.553677
0.553756
0.553886
0.554674
0.552154
0.42738
0.428975
0.428478
0.428467
0.428509
0.428569
0.42863
0.428686
0.428732
0.428763
0.428775
0.428773
0.428754
0.428725
0.428688
0.428653
0.428631
0.428658
0.429167
0.427575
0.330326
0.332893
0.331934
0.331822
0.331752
0.331674
0.331589
0.331501
0.331411
0.331321
0.331243
0.331182
0.331137
0.331094
0.331053
0.331008
0.330971
0.330985
0.33186
0.329237
0.825813
0.825417
0.825774
0.825915
0.825984
0.826014
0.826038
0.826061
0.826086
0.826115
0.826145
0.826174
0.826199
0.826224
0.826233
0.826222
0.826163
0.826023
0.825662
0.826042
0.280556
0.28272
0.281956
0.281919
0.281914
0.281905
0.281891
0.28187
0.281843
0.281813
0.28178
0.281748
0.281716
0.281687
0.281657
0.281631
0.281614
0.281644
0.282415
0.280241
0.505641
0.505758
0.506099
0.506472
0.506902
0.507377
0.50787
0.508361
0.508833
0.509265
0.509645
0.50996
0.510199
0.51036
0.510446
0.510469
0.510443
0.510377
0.51024
0.510238
0.181895
0.182847
0.182462
0.182419
0.182379
0.182337
0.182292
0.182253
0.182225
0.182207
0.182189
0.18216
0.182116
0.182059
0.18201
0.181966
0.181933
0.181914
0.182246
0.18128
0.489605
0.491728
0.491015
0.490917
0.490891
0.490888
0.490887
0.490885
0.490874
0.490849
0.490807
0.490745
0.490661
0.490555
0.490431
0.490308
0.490209
0.490195
0.490866
0.488547
0.242148
0.243083
0.242741
0.242726
0.242735
0.24275
0.242764
0.242774
0.24278
0.242779
0.242772
0.242755
0.242732
0.242706
0.242677
0.242648
0.242628
0.242633
0.242969
0.242031
0.275686
0.276384
0.276154
0.276158
0.276164
0.276162
0.276146
0.276117
0.27608
0.276038
0.275996
0.275954
0.275915
0.275879
0.275844
0.275807
0.275773
0.275753
0.275972
0.275271
0.150087
0.150313
0.150128
0.150013
0.14988
0.149747
0.149632
0.149549
0.149507
0.149515
0.149575
0.149686
0.149842
0.150035
0.150248
0.150464
0.150662
0.150832
0.151055
0.150846
0.869411
0.873665
0.872227
0.871773
0.871466
0.87122
0.871012
0.870828
0.870672
0.870544
0.870446
0.870383
0.870354
0.87037
0.870428
0.870537
0.870732
0.871095
0.872491
0.868103
0.0385463
0.0385528
0.0385444
0.0385343
0.0385209
0.0385036
0.0384823
0.0384573
0.0384284
0.0383944
0.0383548
0.03831
0.038263
0.0382166
0.0381732
0.0381358
0.0381048
0.0380806
0.0380658
0.038047
0.0659101
0.0662693
0.0660118
0.0658545
0.0656549
0.0654552
0.0652767
0.0651148
0.0649822
0.0648942
0.0648393
0.0648173
0.0648709
0.0649772
0.0651047
0.0652538
0.0653959
0.0655293
0.0657892
0.0654951
0.0530769
0.0532299
0.053129
0.053084
0.0530321
0.0529788
0.0529293
0.0528873
0.0528524
0.0528238
0.0528013
0.0527857
0.0527793
0.0527819
0.0527949
0.0528137
0.0528352
0.0528571
0.0529397
0.0527832
0.00953199
0.00953482
0.00949958
0.00946125
0.00941626
0.00936874
0.00932326
0.00928382
0.00925495
0.00923962
0.00924013
0.00925722
0.00928898
0.00933258
0.00938295
0.00943532
0.00948433
0.00952552
0.00956208
0.00955952
0.159232
0.159748
0.159458
0.15934
0.159211
0.159082
0.158965
0.158876
0.15883
0.158833
0.158888
0.158993
0.159136
0.159303
0.159481
0.159653
0.159808
0.159941
0.16024
0.159724
0.257954
0.259905
0.259191
0.259139
0.259112
0.259084
0.259049
0.259008
0.258963
0.258908
0.25885
0.258784
0.258713
0.25864
0.258567
0.258496
0.258434
0.258414
0.259077
0.257102
0.0245482
0.0245749
0.0245029
0.0244313
0.0243516
0.0242691
0.0241951