/*--------------------------------*- C++ -*----------------------------------*\
| =========                 |                                                 |
| \\      /  F ield         | OpenFOAM: The Open Source CFD Toolbox           |
|  \\    /   O peration     | Version:  4.1                                   |
|   \\  /    A nd           | Web:      www.OpenFOAM.org                      |
|    \\/     M anipulation  |                                                 |
\*---------------------------------------------------------------------------*/
FoamFile
{
    version     2.0;
    format      ascii;
    class       volScalarField;
    location    "0.019";
    object      c;
}
// * * * * * * * * * * * * * * * * * * * * * * * * * * * * * * * * * * * * * //

dimensions      [0 1 -1 0 0 0 0];

internalField   nonuniform List<scalar> 
278640
(
346.851
346.718
346.733
346.751
346.771
346.79
346.806
346.819
346.829
346.833
346.833
346.829
346.819
346.806
346.79
346.771
346.751
346.733
346.718
346.851
348.543
348.44
348.452
348.467
348.482
348.497
348.51
348.521
348.528
348.532
348.532
348.528
348.521
348.51
348.497
348.482
348.467
348.452
348.44
348.543
327.483
327.09
327.125
327.167
327.209
327.248
327.282
327.309
327.327
327.337
327.337
327.327
327.309
327.282
327.247
327.208
327.166
327.124
327.09
327.482
348.863
348.774
348.783
348.796
348.81
348.823
348.834
348.843
348.849
348.853
348.853
348.849
348.843
348.834
348.823
348.81
348.796
348.783
348.774
348.863
325.812
325.474
325.502
325.542
325.583
325.622
325.656
325.682
325.701
325.71
325.71
325.701
325.683
325.656
325.622
325.583
325.541
325.501
325.472
325.81
342.939
342.747
342.767
342.793
342.82
342.846
342.869
342.887
342.9
342.907
342.907
342.9
342.887
342.869
342.846
342.82
342.793
342.767
342.747
342.939
344.183
344.017
344.035
344.06
344.085
344.109
344.131
344.148
344.16
344.166
344.166
344.16
344.148
344.131
344.109
344.085
344.06
344.035
344.017
344.183
337.124
336.921
336.944
336.975
337.008
337.04
337.068
337.091
337.107
337.115
337.115
337.107
337.091
337.068
337.04
337.008
336.975
336.944
336.921
337.124
349.639
349.59
349.596
349.604
349.613
349.621
349.628
349.634
349.638
349.64
349.64
349.638
349.634
349.628
349.621
349.613
349.604
349.596
349.59
349.639
349.551
349.499
349.506
349.516
349.525
349.535
349.543
349.55
349.555
349.557
349.557
349.555
349.55
349.543
349.535
349.525
349.516
349.506
349.499
349.551
345.702
345.573
345.588
345.608
345.628
345.649
345.667
345.681
345.691
345.697
345.697
345.691
345.681
345.667
345.649
345.628
345.608
345.588
345.573
345.702
334.163
333.924
333.951
333.985
334.021
334.055
334.085
334.109
334.126
334.134
334.135
334.126
334.109
334.085
334.055
334.021
333.985
333.95
333.924
334.162
339.437
339.223
339.246
339.277
339.309
339.339
339.366
339.388
339.403
339.41
339.41
339.403
339.387
339.366
339.339
339.308
339.277
339.246
339.223
339.437
345.053
344.928
344.944
344.965
344.988
345.009
345.028
345.044
345.055
345.06
345.06
345.055
345.044
345.028
345.009
344.988
344.965
344.944
344.928
345.053
340.932
340.753
340.774
340.803
340.833
340.861
340.886
340.906
340.92
340.927
340.927
340.92
340.906
340.886
340.861
340.833
340.803
340.774
340.753
340.932
348.171
348.061
348.073
348.089
348.106
348.122
348.136
348.148
348.156
348.16
348.16
348.156
348.148
348.136
348.122
348.106
348.089
348.073
348.061
348.171
349.348
349.284
349.292
349.304
349.315
349.327
349.337
349.346
349.352
349.355
349.355
349.352
349.346
349.337
349.327
349.315
349.304
349.292
349.284
349.348
329.884
329.52
329.55
329.592
329.634
329.675
329.709
329.737
329.756
329.765
329.765
329.755
329.736
329.709
329.674
329.634
329.592
329.55
329.52
329.885
335.772
335.55
335.574
335.608
335.642
335.676
335.705
335.729
335.745
335.754
335.754
335.745
335.729
335.705
335.676
335.643
335.608
335.575
335.55
335.772
349.46
349.397
349.405
349.416
349.427
349.437
349.447
349.454
349.46
349.462
349.462
349.46
349.454
349.447
349.437
349.427
349.416
349.405
349.397
349.46
347.784
347.696
347.708
347.724
347.741
347.758
347.773
347.785
347.794
347.798
347.798
347.794
347.785
347.773
347.758
347.741
347.724
347.708
347.696
347.784
348.648
348.561
348.571
348.585
348.6
348.614
348.627
348.638
348.645
348.649
348.649
348.645
348.638
348.627
348.614
348.6
348.585
348.571
348.561
348.648
346.457
346.336
346.35
346.37
346.391
346.412
346.43
346.444
346.455
346.46
346.46
346.455
346.444
346.43
346.412
346.391
346.37
346.35
346.336
346.457
348.114
348.009
348.021
348.037
348.055
348.072
348.087
348.1
348.108
348.113
348.113
348.108
348.1
348.087
348.072
348.055
348.037
348.021
348.009
348.114
343.082
342.895
342.916
342.943
342.971
342.999
343.022
343.042
343.055
343.062
343.062
343.055
343.042
343.023
342.999
342.971
342.943
342.916
342.895
343.082
349.895
349.86
349.865
349.872
349.879
349.887
349.893
349.898
349.902
349.904
349.904
349.902
349.898
349.893
349.887
349.879
349.872
349.865
349.86
349.895
333.115
332.865
332.891
332.928
332.966
333.002
333.034
333.059
333.077
333.086
333.086
333.077
333.059
333.034
333.002
332.966
332.928
332.891
332.865
333.116
319.535
319.365
319.388
319.42
319.455
319.489
319.519
319.544
319.561
319.57
319.57
319.561
319.544
319.519
319.489
319.455
319.421
319.388
319.365
319.536
349.66
349.613
349.619
349.628
349.637
349.646
349.654
349.66
349.664
349.667
349.667
349.664
349.66
349.654
349.646
349.637
349.628
349.619
349.613
349.66
349.35
349.293
349.301
349.312
349.323
349.334
349.344
349.352
349.358
349.361
349.361
349.358
349.352
349.344
349.334
349.323
349.312
349.301
349.293
349.35
342.184
342.024
342.043
342.07
342.098
342.125
342.149
342.168
342.182
342.189
342.189
342.182
342.168
342.149
342.125
342.098
342.07
342.043
342.024
342.184
338.486
338.299
338.321
338.35
338.381
338.41
338.436
338.458
338.472
338.48
338.48
338.472
338.458
338.436
338.41
338.381
338.35
338.321
338.299
338.486
323.38
323.165
323.191
323.227
323.264
323.3
323.332
323.358
323.376
323.385
323.385
323.375
323.357
323.331
323.299
323.263
323.225
323.19
323.164
323.378
348.561
348.475
348.485
348.499
348.514
348.528
348.541
348.552
348.559
348.563
348.563
348.559
348.552
348.541
348.528
348.514
348.499
348.485
348.475
348.561
347.578
347.506
347.517
347.532
347.548
347.564
347.579
347.591
347.599
347.603
347.603
347.599
347.591
347.579
347.564
347.548
347.532
347.517
347.506
347.578
345.859
345.766
345.779
345.798
345.818
345.837
345.854
345.868
345.878
345.883
345.883
345.878
345.868
345.854
345.837
345.818
345.798
345.779
345.766
345.859
344.32
344.178
344.194
344.217
344.242
344.266
344.287
344.304
344.316
344.322
344.322
344.316
344.304
344.287
344.266
344.242
344.217
344.194
344.178
344.32
349.98
349.956
349.96
349.965
349.971
349.977
349.983
349.987
349.99
349.991
349.991
349.99
349.987
349.983
349.977
349.971
349.965
349.96
349.956
349.98
316.635
316.552
316.571
316.6
316.631
316.663
316.691
316.714
316.73
316.739
316.738
316.73
316.714
316.691
316.662
316.631
316.599
316.57
316.551
316.634
73.1154
73.1152
73.115
73.1149
73.1148
73.1147
73.1146
73.1145
73.1144
73.1144
73.1144
73.1144
73.1145
73.1145
73.1146
73.1147
73.1148
73.1149
73.115
73.1152
73.7353
73.7349
73.7348
73.7348
73.7348
73.7348
73.7348
73.7348
73.7348
73.7348
73.7348
73.7348
73.7348
73.7348
73.7349
73.7349
73.7349
73.7349
73.735
73.7354
71.8109
71.8105
71.8102
71.8098
71.8094
71.809
71.8086
71.8082
71.808
71.8078
71.8078
71.808
71.8082
71.8086
71.809
71.8094
71.8098
71.8101
71.8105
71.8109
70.8055
70.8044
70.8038
70.8033
70.8026
70.802
70.8013
70.8007
70.8003
70.8001
70.8001
70.8003
70.8007
70.8013
70.802
70.8026
70.8033
70.8039
70.8044
70.8056
305.447
305.312
305.333
305.364
305.397
305.43
305.459
305.482
305.498
305.506
305.506
305.498
305.481
305.458
305.429
305.397
305.364
305.333
305.312
305.447
156.167
156.174
156.405
156.839
157.418
158.06
158.685
159.22
159.61
159.817
159.82
159.62
159.236
158.705
158.084
157.444
156.865
156.429
156.196
156.186
67.4652
67.4643
67.463
67.4614
67.4595
67.4576
67.4557
67.4542
67.4531
67.4525
67.4525
67.4531
67.4542
67.4558
67.4576
67.4596
67.4615
67.4631
67.4644
67.4653
273.173
271.788
271.197
271.173
271.505
272.019
272.578
273.079
273.451
273.648
273.649
273.454
273.082
272.581
272.02
271.503
271.165
271.182
271.761
273.127
70.0658
70.0653
70.0648
70.064
70.0631
70.0622
70.0613
70.0605
70.06
70.0597
70.0597
70.06
70.0605
70.0613
70.0622
70.0631
70.064
70.0648
70.0653
70.0658
73.181
73.1808
73.1807
73.1806
73.1805
73.1804
73.1803
73.1802
73.1801
73.1801
73.18
73.1801
73.1801
73.1802
73.1802
73.1803
73.1804
73.1804
73.1805
73.1808
72.6631
72.663
72.6629
72.6628
72.6626
72.6625
72.6623
72.6622
72.6621
72.662
72.662
72.6621
72.6622
72.6624
72.6625
72.6627
72.6628
72.663
72.6631
72.6632
69.8559
69.8494
69.8468
69.8441
69.8409
69.8375
69.8342
69.8313
69.8293
69.8283
69.8283
69.8293
69.8314
69.8342
69.8375
69.841
69.8442
69.8469
69.8495
69.856
307.489
307.367
307.388
307.42
307.454
307.487
307.516
307.54
307.557
307.565
307.565
307.557
307.54
307.516
307.487
307.454
307.42
307.388
307.367
307.489
313.499
313.427
313.445
313.474
313.506
313.537
313.566
313.589
313.606
313.614
313.614
313.606
313.589
313.566
313.538
313.506
313.474
313.445
313.427
313.5
69.7427
69.7419
69.741
69.7399
69.7386
69.7373
69.736
69.735
69.7342
69.7338
69.7337
69.7341
69.7349
69.7359
69.7372
69.7385
69.7398
69.7408
69.7417
69.7425
69.1382
69.1371
69.1362
69.1352
69.134
69.1326
69.1314
69.1303
69.1295
69.1291
69.1292
69.1296
69.1304
69.1315
69.1328
69.1341
69.1354
69.1364
69.1373
69.1384
73.957
73.957
73.957
73.957
73.957
73.9571
73.9571
73.9571
73.9572
73.9572
73.9572
73.9572
73.9572
73.9571
73.9571
73.9571
73.957
73.957
73.957
73.957
70.3022
70.3018
70.3013
70.3006
70.2999
70.2992
70.2984
70.2978
70.2974
70.2971
70.2971
70.2974
70.2978
70.2985
70.2992
70.2999
70.3007
70.3013
70.3018
70.3022
71.6388
71.6385
71.6381
71.6378
71.6374
71.6369
71.6365
71.6362
71.6359
71.6358
71.6358
71.6359
71.6362
71.6366
71.637
71.6374
71.6378
71.6382
71.6385
71.6389
70.557
70.5565
70.556
70.5555
70.5548
70.5542
70.5536
70.553
70.5526
70.5524
70.5524
70.5526
70.553
70.5536
70.5542
70.5549
70.5555
70.556
70.5565
70.5571
226.653
225.863
225.634
225.819
226.272
226.861
227.471
228.011
228.409
228.621
228.623
228.414
228.018
227.48
226.87
226.28
225.824
225.634
225.854
226.634
73.5618
73.5617
73.5616
73.5616
73.5616
73.5615
73.5615
73.5615
73.5615
73.5615
73.5615
73.5615
73.5615
73.5615
73.5615
73.5615
73.5615
73.5616
73.5616
73.5617
68.1947
68.194
68.1931
68.1918
68.1904
68.1888
68.1874
68.1861
68.1852
68.1848
68.1847
68.1852
68.1861
68.1873
68.1887
68.1903
68.1917
68.1929
68.1939
68.1945
71.5252
71.5247
71.5244
71.5239
71.5235
71.523
71.5226
71.5222
71.5219
71.5218
71.5218
71.522
71.5223
71.5226
71.5231
71.5236
71.524
71.5245
71.5249
71.5253
71.2332
71.2324
71.2319
71.2315
71.231
71.2305
71.23
71.2295
71.2292
71.2291
71.2291
71.2292
71.2296
71.23
71.2305
71.231
71.2315
71.232
71.2325
71.2333
71.027
71.0262
71.0257
71.0252
71.0247
71.0241
71.0236
71.0231
71.0228
71.0226
71.0226
71.0228
71.0231
71.0236
71.0241
71.0247
71.0252
71.0257
71.0262
71.027
72.9424
72.9422
72.9421
72.942
72.9419
72.9418
72.9416
72.9415
72.9415
72.9414
72.9414
72.9414
72.9415
72.9416
72.9417
72.9418
72.9419
72.942
72.9421
72.9423
73.8648
73.8646
73.8646
73.8646
73.8646
73.8646
73.8646
73.8646
73.8647
73.8647
73.8647
73.8647
73.8647
73.8647
73.8647
73.8646
73.8646
73.8646
73.8647
73.8648
70.0094
70.0089
70.0083
70.0073
70.0063
70.0051
70.004
70.0031
70.0025
70.0021
70.0021
70.0024
70.0031
70.004
70.005
70.0062
70.0073
70.0082
70.0089
70.0093
67.2448
67.2442
67.2429
67.2411
67.239
67.2368
67.2346
67.2328
67.2315
67.2308
67.2308
67.2314
67.2327
67.2344
67.2365
67.2387
67.2408
67.2426
67.2439
67.2444
67.3254
67.3258
67.3257
67.3247
67.323
67.3208
67.3187
67.3168
67.3155
67.3148
67.3148
67.3154
67.3167
67.3185
67.3206
67.3227
67.3244
67.3254
67.3255
67.3251
71.9947
71.9944
71.9942
71.9939
71.9936
71.9933
71.993
71.9927
71.9925
71.9924
71.9924
71.9925
71.9927
71.993
71.9932
71.9935
71.9938
71.9941
71.9944
71.9946
65.3376
65.3334
65.3308
65.3277
65.3241
65.3205
65.317
65.3141
65.3121
65.311
65.311
65.312
65.3141
65.317
65.3204
65.3241
65.3276
65.3307
65.3333
65.3375
73.647
73.6469
73.6469
73.6468
73.6468
73.6469
73.6469
73.6468
73.6468
73.6468
73.6468
73.6468
73.6468
73.6468
73.6468
73.6468
73.6468
73.6468
73.6469
73.647
311.047
310.847
310.872
310.907
310.944
310.981
311.013
311.039
311.057
311.067
311.067
311.057
311.039
311.013
310.981
310.945
310.907
310.872
310.847
311.047
73.4357
73.4355
73.4354
73.4354
73.4353
73.4353
73.4352
73.4352
73.4351
73.4351
73.4351
73.4351
73.4351
73.4351
73.4352
73.4352
73.4352
73.4352
73.4353
73.4356
68.9427
68.9349
68.9326
68.9302
68.9274
68.9245
68.9217
68.9193
68.9177
68.9169
68.9169
68.9179
68.9196
68.9221
68.9249
68.928
68.9308
68.9332
68.9355
68.9433
71.9044
71.9041
71.9038
71.9035
71.9032
71.9028
71.9024
71.9021
71.9019
71.9018
71.9018
71.9019
71.9021
71.9024
71.9028
71.9031
71.9035
71.9038
71.9041
71.9044
303.951
303.827
303.831
303.855
303.888
303.923
303.957
303.985
304.005
304.015
304.015
304.005
303.984
303.956
303.923
303.887
303.854
303.83
303.826
303.95
72.2747
72.2745
72.2743
72.2741
72.2739
72.2736
72.2734
72.2732
72.2731
72.273
72.273
72.2731
72.2732
72.2734
72.2737
72.2739
72.2741
72.2743
72.2745
72.2747
72.1281
72.1279
72.1277
72.1275
72.1272
72.127
72.1267
72.1265
72.1263
72.1263
72.1262
72.1263
72.1265
72.1267
72.127
72.1272
72.1275
72.1277
72.1279
72.128
70.0066
70.006
70.0052
70.0043
70.0031
70.0018
70.0006
69.9995
69.9987
69.9983
69.9983
69.9987
69.9995
70.0006
70.0019
70.0031
70.0043
70.0053
70.006
70.0066
72.4058
72.4057
72.4055
72.4054
72.4052
72.405
72.4048
72.4047
72.4046
72.4045
72.4045
72.4046
72.4047
72.4049
72.4051
72.4053
72.4054
72.4056
72.4057
72.4059
67.8596
67.86
67.8594
67.8581
67.8563
67.8542
67.852
67.8499
67.848
67.8469
67.847
67.8483
67.8502
67.8525
67.8548
67.857
67.8588
67.8602
67.8609
67.8605
68.7204
68.7193
68.7184
68.7173
68.716
68.7147
68.7135
68.7125
68.7117
68.7114
68.7114
68.7118
68.7125
68.7136
68.7148
68.7161
68.7174
68.7185
68.7194
68.7206
69.9696
69.969
69.9681
69.9671
69.9658
69.9645
69.9633
69.9623
69.9615
69.9612
69.9612
69.9615
69.9623
69.9633
69.9645
69.9658
69.9671
69.9682
69.9691
69.9697
67.8735
67.8727
67.8716
67.8703
67.8688
67.8673
67.8658
67.8646
67.8637
67.8633
67.8633
67.8637
67.8645
67.8656
67.867
67.8686
67.87
67.8713
67.8723
67.8732
69.9731
69.9672
69.9658
69.9646
69.963
69.9611
69.9592
69.9574
69.9561
69.9553
69.9552
69.9558
69.957
69.9586
69.9604
69.9622
69.9637
69.9648
69.9662
69.9721
70.1989
70.1985
70.198
70.1973
70.1966
70.1958
70.1951
70.1945
70.194
70.1938
70.1938
70.194
70.1944
70.1951
70.1958
70.1966
70.1973
70.198
70.1985
70.1989
73.338
73.3378
73.3377
73.3376
73.3376
73.3375
73.3375
73.3375
73.3374
73.3374
73.3374
73.3374
73.3374
73.3374
73.3375
73.3375
73.3375
73.3376
73.3377
73.3379
72.8333
72.8331
72.833
72.8329
72.8328
72.8327
72.8326
72.8325
72.8324
72.8324
72.8324
72.8324
72.8325
72.8325
72.8326
72.8327
72.8328
72.8329
72.8331
72.8332
71.7488
71.7485
71.7482
71.7479
71.7475
71.7471
71.7468
71.7465
71.7463
71.7462
71.7462
71.7463
71.7465
71.7468
71.7471
71.7475
71.7479
71.7482
71.7486
71.7488
70.0206
70.0203
70.0197
70.0189
70.018
70.0171
70.0162
70.0154
70.0149
70.0146
70.0146
70.0149
70.0154
70.0161
70.017
70.018
70.0189
70.0197
70.0203
70.0206
309.572
309.452
309.472
309.502
309.536
309.568
309.598
309.622
309.639
309.647
309.647
309.639
309.622
309.598
309.568
309.536
309.502
309.472
309.451
309.571
71.4199
71.4194
71.419
71.4186
71.4182
71.4178
71.4174
71.417
71.4168
71.4166
71.4166
71.4168
71.417
71.4174
71.4178
71.4183
71.4187
71.4191
71.4195
71.42
72.5551
72.555
72.5549
72.5547
72.5546
72.5545
72.5543
72.5542
72.5542
72.5541
72.5541
72.5542
72.5543
72.5544
72.5546
72.5547
72.5549
72.555
72.5551
72.5552
69.5833
69.5824
69.5815
69.5805
69.5794
69.5782
69.5772
69.5763
69.5757
69.5754
69.5754
69.5757
69.5762
69.5771
69.5781
69.5792
69.5803
69.5813
69.5822
69.5831
69.9131
69.9125
69.9116
69.9105
69.9092
69.9079
69.9067
69.9057
69.9051
69.9047
69.9047
69.905
69.9057
69.9066
69.9078
69.9091
69.9103
69.9115
69.9124
69.913
68.6074
68.6048
68.6039
68.603
68.6018
68.6005
68.5992
68.598
68.5972
68.5968
68.5968
68.5974
68.5984
68.5997
68.6011
68.6025
68.6038
68.6047
68.6057
68.6083
68.4169
68.4156
68.4151
68.4149
68.4146
68.4142
68.4139
68.4136
68.4134
68.4133
68.4133
68.4134
68.4136
68.4139
68.4142
68.4145
68.4148
68.4151
68.4155
68.4168
73.6083
73.6088
73.6088
73.609
73.609
73.6087
73.6088
73.6089
73.609
73.609
73.6088
73.6089
73.609
73.6089
73.6087
73.6087
73.6087
73.6087
73.6086
73.6085
69.376
69.3753
69.3749
69.3747
69.3746
69.3745
69.3744
69.3742
69.3741
69.374
69.374
69.3741
69.3743
69.3745
69.3746
69.3748
69.3749
69.3751
69.3755
69.3763
74.258
74.2577
74.2576
74.2577
74.2577
74.2577
74.2578
74.2578
74.2579
74.2579
74.2579
74.2578
74.2578
74.2578
74.2577
74.2577
74.2576
74.2576
74.2577
74.2579
74.0779
74.0779
74.0779
74.0779
74.0779
74.078
74.078
74.078
74.0781
74.0781
74.0781
74.0781
74.0781
74.078
74.078
74.078
74.0779
74.0779
74.0779
74.078
166.755
165.048
164.303
164.141
164.24
164.427
164.617
164.773
164.882
164.938
164.94
164.889
164.784
164.632
164.446
164.263
164.166
164.331
165.079
166.787
69.8246
69.819
69.8182
69.8177
69.8171
69.8164
69.8157
69.8151
69.8147
69.8145
69.8145
69.8147
69.8151
69.8157
69.8164
69.8171
69.8177
69.8182
69.819
69.8246
177.35
175.351
174.397
174.078
174.075
174.205
174.37
174.52
174.63
174.689
174.693
174.641
174.538
174.395
174.237
174.112
174.119
174.443
175.401
177.402
71.0694
71.0691
71.0692
71.0693
71.0692
71.0692
71.069
71.0689
71.0688
71.0687
71.0688
71.0688
71.069
71.0691
71.0693
71.0694
71.0694
71.0694
71.0693
71.0696
69.5528
69.5492
69.5492
69.5495
69.5496
69.5497
69.5498
69.5499
69.5501
69.5501
69.5501
69.5501
69.55
69.5499
69.5498
69.5496
69.5495
69.5493
69.5493
69.5529
74.1972
74.1971
74.197
74.197
74.1971
74.1971
74.1972
74.1972
74.1972
74.1972
74.1972
74.1972
74.1972
74.1971
74.1971
74.197
74.197
74.197
74.197
74.1972
67.4634
67.4633
67.463
67.4625
67.462
67.4616
67.4613
67.461
67.4608
67.4607
67.4607
67.4608
67.4609
67.4611
67.4615
67.4619
67.4623
67.4627
67.4631
67.4631
67.0283
67.029
67.0282
67.0273
67.0264
67.0256
67.0249
67.0243
67.024
67.0238
67.0238
67.024
67.0243
67.0248
67.0255
67.0263
67.0272
67.0281
67.0289
67.0282
78.7956
77.6518
77.4869
77.5319
77.633
77.7435
77.8427
77.9213
77.9751
78.0026
78.0037
77.9784
77.9268
77.8502
77.7529
77.6441
77.5445
77.5008
77.6669
78.8119
67.6136
67.6141
67.614
67.6137
67.6132
67.6128
67.6124
67.6121
67.6119
67.6118
67.6118
67.6119
67.6121
67.6124
67.6128
67.6132
67.6136
67.6139
67.614
67.6135
74.2526
74.252
74.2519
74.252
74.252
74.252
74.252
74.252
74.252
74.252
74.252
74.252
74.252
74.252
74.2519
74.2519
74.2518
74.2517
74.2518
74.2525
67.1604
67.1611
67.1612
67.1608
67.1603
67.1597
67.1592
67.1587
67.1584
67.1582
67.1582
67.1583
67.1586
67.159
67.1595
67.1601
67.1606
67.1609
67.1609
67.1602
72.364
72.366
72.366
72.3659
72.3658
72.3657
72.3655
72.3653
72.3652
72.3652
72.3652
72.3652
72.3654
72.3656
72.3657
72.3659
72.366
72.3661
72.3661
72.3642
71.9427
71.9415
71.9413
71.9413
71.9413
71.9411
71.9409
71.9407
71.9405
71.9404
71.9404
71.9405
71.9407
71.9409
71.9411
71.9413
71.9413
71.9413
71.9416
71.9428
71.6716
71.671
71.6708
71.6708
71.6708
71.6706
71.6705
71.6703
71.6701
71.67
71.67
71.6701
71.6703
71.6705
71.6706
71.6708
71.6708
71.6708
71.671
71.6716
70.2468
70.2471
70.2471
70.2471
70.2471
70.247
70.247
70.2469
70.2469
70.2469
70.2469
70.2469
70.247
70.2471
70.2472
70.2472
70.2472
70.2472
70.2472
70.247
69.2628
69.2615
69.261
69.2608
69.2607
69.2606
69.2605
69.2603
69.2603
69.2602
69.2602
69.2603
69.2604
69.2605
69.2607
69.2608
69.2609
69.2611
69.2616
69.2629
71.3968
71.3944
71.3938
71.3937
71.3936
71.3935
71.3932
71.393
71.3928
71.3927
71.3927
71.3928
71.393
71.3932
71.3935
71.3936
71.3937
71.3938
71.3944
71.3968
65.2259
65.2214
65.2211
65.2207
65.2202
65.2197
65.2193
65.2189
65.2187
65.2185
65.2185
65.2187
65.2189
65.2192
65.2196
65.2202
65.2207
65.221
65.2213
65.2257
68.7573
68.755
68.7549
68.755
68.755
68.755
68.7549
68.7549
68.7548
68.7548
68.7548
68.7548
68.7548
68.7549
68.7549
68.7549
68.7549
68.7548
68.755
68.7573
69.0034
69.0024
69.0019
69.0015
69.0013
69.0012
69.0011
69.001
69.0009
69.0008
69.0008
69.0009
69.001
69.001
69.0012
69.0013
69.0015
69.0019
69.0024
69.0034
69.6105
69.6102
69.6101
69.6101
69.6102
69.6103
69.6104
69.6105
69.6106
69.6106
69.6106
69.6106
69.6106
69.6105
69.6104
69.6103
69.6103
69.6103
69.6104
69.6107
74.4708
74.4704
74.4701
74.4699
74.4697
74.4694
74.469
74.4688
74.4685
74.4684
74.4684
74.4686
74.4688
74.4691
74.4695
74.4698
74.47
74.4703
74.4705
74.471
71.1743
71.1749
71.175
71.175
71.1751
71.1751
71.1751
71.1751
71.1751
71.1751
71.1751
71.1751
71.1751
71.1752
71.1752
71.1751
71.1751
71.1751
71.175
71.1744
93.9501
93.9501
93.9501
93.9501
93.9501
93.9501
93.9501
93.9501
93.9501
93.9501
93.9501
93.9501
93.9501
93.9502
93.9502
93.9502
93.9502
93.9502
93.9502
93.9502
93.3035
93.3033
93.3031
93.3031
93.3029
93.3028
93.3027
93.3027
93.3026
93.3026
93.3027
93.3027
93.3028
93.303
93.3031
93.3033
93.3034
93.3035
93.3036
93.3039
93.0821
93.0817
93.0815
93.0814
93.0812
93.0811
93.081
93.0808
93.0808
93.0808
93.0808
93.0809
93.081
93.0812
93.0814
93.0816
93.0817
93.0819
93.0821
93.0825
93.7773
93.7773
93.7773
93.7773
93.7773
93.7772
93.7772
93.7772
93.7772
93.7772
93.7772
93.7773
93.7773
93.7773
93.7773
93.7774
93.7774
93.7774
93.7775
93.7774
90.0831
90.0801
90.0792
90.0785
90.0777
90.0768
90.076
90.0753
90.0747
90.0745
90.0745
90.0749
90.0755
90.0763
90.0773
90.0783
90.0792
90.0799
90.0808
90.0839
93.5172
93.5172
93.5172
93.5171
93.517
93.517
93.5169
93.5169
93.5169
93.5169
93.5169
93.5169
93.517
93.5171
93.5172
93.5173
93.5174
93.5175
93.5175
93.5175
88.3962
88.3941
88.3931
88.3917
88.3901
88.3884
88.3869
88.3856
88.3848
88.3845
88.3847
88.3854
88.3866
88.388
88.3897
88.3913
88.3929
88.3941
88.3951
88.3971
93.8361
93.8362
93.8362
93.8362
93.8362
93.8361
93.8361
93.8361
93.8361
93.8361
93.8361
93.8361
93.8362
93.8362
93.8362
93.8362
93.8362
93.8363
93.8363
93.8361
94.254
94.2541
94.2541
94.2541
94.2541
94.2542
94.2542
94.2542
94.2542
94.2542
94.2543
94.2543
94.2543
94.2543
94.2543
94.2543
94.2543
94.2543
94.2543
94.2542
94.8658
94.866
94.866
94.8659
94.8659
94.8659
94.8659
94.8659
94.8658
94.8658
94.8658
94.8658
94.8658
94.8658
94.8658
94.8658
94.8658
94.8658
94.8658
94.8656
93.6769
93.677
93.677
93.677
93.677
93.6769
93.6769
93.6769
93.6769
93.6769
93.6769
93.6769
93.677
93.677
93.6771
93.6771
93.6772
93.6772
93.6772
93.6771
94.1737
94.174
94.174
94.174
94.174
94.174
94.174
94.174
94.174
94.174
94.174
94.174
94.174
94.174
94.1741
94.1741
94.1741
94.1741
94.1741
94.1739
93.5583
93.5584
93.5584
93.5584
93.5584
93.5583
93.5583
93.5583
93.5583
93.5583
93.5583
93.5583
93.5584
93.5584
93.5585
93.5586
93.5586
93.5587
93.5587
93.5586
93.7805
93.7806
93.7806
93.7806
93.7806
93.7806
93.7806
93.7806
93.7806
93.7806
93.7806
93.7806
93.7806
93.7806
93.7807
93.7807
93.7807
93.7807
93.7807
93.7806
94.831
94.8311
94.8311
94.8311
94.8311
94.8311
94.8311
94.8311
94.8311
94.8311
94.8311
94.8311
94.8311
94.8311
94.8311
94.8311
94.8311
94.8311
94.8311
94.8309
95.0067
95.0067
95.0066
95.0067
95.0067
95.0067
95.0067
95.0067
95.0067
95.0067
95.0067
95.0067
95.0067
95.0067
95.0067
95.0067
95.0067
95.0067
95.0067
95.0067
94.7926
94.7928
94.7928
94.7928
94.7928
94.7928
94.7928
94.7928
94.7928
94.7928
94.7928
94.7927
94.7927
94.7927
94.7927
94.7928
94.7928
94.7928
94.7928
94.7925
93.6622
93.6622
93.6622
93.6622
93.6621
93.6621
93.6621
93.662
93.662
93.662
93.662
93.6621
93.6621
93.6622
93.6622
93.6623
93.6623
93.6624
93.6624
93.6625
93.9986
93.9988
93.9988
93.9988
93.9988
93.9988
93.9988
93.9988
93.9988
93.9988
93.9988
93.9988
93.9988
93.9988
93.9988
93.9988
93.9989
93.9989
93.9989
93.9986
94.8787
94.8787
94.8788
94.8788
94.8788
94.8788
94.8788
94.8788
94.8788
94.8788
94.8788
94.8789
94.8789
94.8789
94.8789
94.8789
94.8789
94.8789
94.8789
94.8788
93.9716
93.9717
93.9717
93.9717
93.9717
93.9717
93.9717
93.9717
93.9717
93.9717
93.9717
93.9717
93.9717
93.9717
93.9717
93.9717
93.9717
93.9717
93.9717
93.9716
94.6572
94.6573
94.6573
94.6573
94.6573
94.6573
94.6573
94.6573
94.6573
94.6573
94.6573
94.6573
94.6573
94.6573
94.6573
94.6573
94.6573
94.6573
94.6573
94.6572
94.4566
94.4567
94.4567
94.4567
94.4567
94.4567
94.4567
94.4567
94.4567
94.4567
94.4567
94.4567
94.4567
94.4567
94.4567
94.4567
94.4567
94.4567
94.4567
94.4567
95.1082
95.1083
95.1083
95.1083
95.1082
95.1082
95.1082
95.1082
95.1082
95.1082
95.1082
95.1082
95.1082
95.1082
95.1083
95.1083
95.1083
95.1083
95.1083
95.1082
94.0994
94.0994
94.0994
94.0994
94.0994
94.0994
94.0994
94.0994
94.0994
94.0994
94.0994
94.0994
94.0994
94.0994
94.0994
94.0994
94.0994
94.0994
94.0994
94.0994
94.2559
94.2562
94.2562
94.2562
94.2562
94.2562
94.2562
94.2562
94.2562
94.2562
94.2562
94.2562
94.2562
94.2562
94.2562
94.2562
94.2562
94.2562
94.2562
94.2559
94.281
94.2812
94.2812
94.2812
94.2812
94.2812
94.2812
94.2812
94.2812
94.2812
94.2812
94.2813
94.2813
94.2813
94.2813
94.2813
94.2813
94.2813
94.2813
94.2812
94.1517
94.1519
94.1519
94.1519
94.1519
94.1519
94.1519
94.1519
94.1519
94.1519
94.1519
94.1519
94.1519
94.1519
94.1519
94.1519
94.1519
94.152
94.152
94.1518
94.5025
94.5026
94.5026
94.5026
94.5026
94.5026
94.5026
94.5026
94.5026
94.5026
94.5026
94.5026
94.5026
94.5026
94.5026
94.5026
94.5026
94.5026
94.5026
94.5025
94.6632
94.6634
94.6634
94.6634
94.6634
94.6634
94.6634
94.6634
94.6634
94.6634
94.6634
94.6634
94.6634
94.6634
94.6634
94.6634
94.6634
94.6634
94.6634
94.6632
94.1564
94.1566
94.1566
94.1566
94.1565
94.1565
94.1565
94.1565
94.1565
94.1566
94.1566
94.1566
94.1566
94.1566
94.1566
94.1566
94.1566
94.1566
94.1566
94.1564
93.7057
93.7059
93.7059
93.7059
93.7058
93.7058
93.7058
93.7058
93.7058
93.7058
93.7058
93.7058
93.7059
93.7059
93.7059
93.706
93.706
93.7061
93.7061
93.7059
93.9737
93.9738
93.9738
93.9738
93.9738
93.9738
93.9738
93.9738
93.9738
93.9738
93.9738
93.9738
93.9738
93.9738
93.9739
93.9739
93.9739
93.9739
93.9739
93.9738
94.8097
94.8097
94.8097
94.8097
94.8097
94.8097
94.8097
94.8097
94.8097
94.8097
94.8097
94.8096
94.8096
94.8096
94.8096
94.8096
94.8096
94.8096
94.8096
94.8096
93.8627
93.8628
93.8628
93.8628
93.8628
93.8628
93.8627
93.8627
93.8627
93.8627
93.8627
93.8628
93.8628
93.8628
93.8628
93.8628
93.8628
93.8629
93.8629
93.8628
93.4035
93.4035
93.4034
93.4034
93.4033
93.4033
93.4033
93.4032
93.4032
93.4032
93.4032
93.4033
93.4034
93.4034
93.4035
93.4036
93.4037
93.4038
93.4038
93.4038
93.821
93.8211
93.8211
93.8211
93.8211
93.8211
93.8211
93.8211
93.8211
93.8211
93.8211
93.8211
93.8211
93.8211
93.8212
93.8212
93.8212
93.8212
93.8213
93.8211
95.053
95.0531
95.0531
95.0531
95.0531
95.0531
95.0531
95.0531
95.0531
95.0531
95.0531
95.0531
95.0531
95.0531
95.0531
95.0531
95.0531
95.0531
95.0531
95.053
95.1519
95.152
95.152
95.152
95.152
95.152
95.152
95.152
95.152
95.1519
95.1519
95.1519
95.1519
95.1519
95.1519
95.1519
95.1519
95.1519
95.1519
95.1518
94.8137
94.8138
94.8138
94.8138
94.8138
94.8138
94.8138
94.8138
94.8138
94.8138
94.8138
94.8138
94.8138
94.8138
94.8138
94.8138
94.8138
94.8139
94.8139
94.8137
95.0777
95.0778
95.0778
95.0778
95.0778
95.0778
95.0778
95.0778
95.0778
95.0778
95.0778
95.0778
95.0778
95.0778
95.0779
95.0779
95.0779
95.0779
95.0779
95.0778
92.7584
92.7575
92.7573
92.7572
92.757
92.7569
92.7568
92.7566
92.7566
92.7565
92.7566
92.7567
92.7568
92.757
92.7571
92.7573
92.7575
92.7576
92.7579
92.7587
95.2184
95.2185
95.2185
95.2184
95.2184
95.2184
95.2184
95.2183
95.2183
95.2183
95.2183
95.2183
95.2183
95.2183
95.2183
95.2183
95.2183
95.2183
95.2182
95.2182
92.1113
92.1099
92.1095
92.1092
92.1089
92.1086
92.1083
92.108
92.1078
92.1078
92.1078
92.108
92.1083
92.1087
92.1091
92.1095
92.1099
92.1102
92.1106
92.1121
94.3956
94.3956
94.3956
94.3956
94.3956
94.3956
94.3956
94.3956
94.3956
94.3956
94.3956
94.3956
94.3956
94.3956
94.3956
94.3956
94.3956
94.3957
94.3957
94.3957
95.78
95.7801
95.7801
95.7802
95.7802
95.7802
95.7803
95.7803
95.7803
95.7803
95.7804
95.7804
95.7804
95.7804
95.7804
95.7803
95.7803
95.7803
95.7803
95.7802
86.0694
86.0453
86.0433
86.0424
86.0415
86.0403
86.0391
86.0381
86.0373
86.0369
86.0369
86.0373
86.0381
86.0392
86.0405
86.0417
86.0427
86.0436
86.0457
86.0697
95.6338
95.634
95.634
95.634
95.6339
95.6339
95.6339
95.6339
95.6339
95.634
95.634
95.6341
95.6341
95.6342
95.6343
95.6344
95.6344
95.6345
95.6345
95.6344
95.3951
95.3951
95.3952
95.3952
95.3952
95.3952
95.3952
95.3952
95.3952
95.3952
95.3952
95.3952
95.3952
95.3952
95.3952
95.3951
95.3951
95.3951
95.3951
95.3951
94.7113
94.7114
94.7114
94.7114
94.7114
94.7114
94.7114
94.7114
94.7114
94.7114
94.7114
94.7114
94.7114
94.7114
94.7114
94.7114
94.7114
94.7114
94.7114
94.7113
94.4003
94.4003
94.4003
94.4003
94.4003
94.4003
94.4003
94.4003
94.4003
94.4003
94.4003
94.4003
94.4003
94.4003
94.4003
94.4003
94.4003
94.4003
94.4003
94.4003
94.5282
94.5283
94.5283
94.5283
94.5283
94.5283
94.5283
94.5283
94.5283
94.5283
94.5283
94.5283
94.5283
94.5283
94.5283
94.5283
94.5283
94.5283
94.5283
94.5282
94.5933
94.5933
94.5933
94.5933
94.5933
94.5933
94.5933
94.5933
94.5933
94.5933
94.5933
94.5933
94.5933
94.5933
94.5933
94.5933
94.5933
94.5933
94.5933
94.5933
95.2947
95.2948
95.2948
95.2948
95.2948
95.2948
95.2948
95.2948
95.2948
95.2948
95.2948
95.2948
95.2948
95.2948
95.2948
95.2948
95.2948
95.2948
95.2947
95.2947
95.4862
95.4863
95.4863
95.4864
95.4864
95.4865
95.4866
95.4866
95.4866
95.4865
95.4865
95.4864
95.4863
95.4863
95.4863
95.4863
95.4864
95.4866
95.4867
95.4868
95.6837
95.684
95.684
95.684
95.684
95.684
95.684
95.684
95.684
95.684
95.684
95.6841
95.6842
95.6842
95.6843
95.6844
95.6844
95.6845
95.6845
95.6843
88.676
88.6748
88.6739
88.6729
88.6717
88.6704
88.6693
88.6683
88.6676
88.6673
88.6673
88.6677
88.6684
88.6695
88.6707
88.6719
88.6732
88.6742
88.6751
88.6762
93.3496
93.3493
93.3492
93.3491
93.3491
93.349
93.349
93.3489
93.3489
93.3489
93.3489
93.349