/*--------------------------------*- C++ -*----------------------------------*\
| =========                 |                                                 |
| \\      /  F ield         | OpenFOAM: The Open Source CFD Toolbox           |
|  \\    /   O peration     | Version:  4.1                                   |
|   \\  /    A nd           | Web:      www.OpenFOAM.org                      |
|    \\/     M anipulation  |                                                 |
\*---------------------------------------------------------------------------*/
FoamFile
{
    version     2.0;
    format      ascii;
    class       volScalarField;
    location    "0.019";
    object      epsilon;
}
// * * * * * * * * * * * * * * * * * * * * * * * * * * * * * * * * * * * * * //

dimensions      [0 2 -3 0 0 0 0];

internalField   nonuniform List<scalar> 
278640
(
363.729
363.272
363.709
364.178
364.599
364.939
365.189
365.355
365.451
365.49
365.482
365.426
365.315
365.135
364.871
364.517
364.084
363.604
363.161
363.613
262.314
261.918
262.084
262.266
262.422
262.54
262.618
262.662
262.684
262.692
262.692
262.683
262.661
262.616
262.537
262.419
262.262
262.08
261.914
262.309
1297.19
1284.42
1300.02
1319.51
1343.99
1373.32
1408.49
1441.99
1473.4
1499.64
1520.09
1534.85
1546.71
1560.67
1575.56
1587.88
1596.59
1598.44
1595.29
1613.67
251.138
250.87
251.016
251.173
251.31
251.414
251.485
251.527
251.549
251.558
251.558
251.55
251.528
251.485
251.414
251.31
251.174
251.017
250.871
251.139
962.528
957.623
954.651
943.953
922.364
889.502
850.605
808.333
771.52
742.399
719.476
704.321
698.205
703.187
717.635
738.121
760.098
782.583
802.129
818.458
550.602
549.107
549.845
550.57
551.101
551.364
551.322
551.027
550.594
550.122
549.646
549.157
548.647
548.131
547.614
547.069
546.521
546.042
545.67
547.406
499.443
498.301
498.958
499.695
500.375
500.952
501.371
501.569
501.514
501.23
500.778
500.226
499.648
499.083
498.502
497.834
497.035
496.147
495.366
496.42
826.478
825.059
826.436
828.344
830.639
833.287
836.254
839.464
842.823
846.259
849.696
853.03
856.131
858.873
861.159
862.927
864.138
864.781
864.967
867.392
202.325
202.248
202.296
202.35
202.397
202.432
202.456
202.47
202.476
202.479
202.479
202.476
202.47
202.456
202.432
202.397
202.35
202.296
202.248
202.325
214.549
214.48
214.558
214.648
214.73
214.798
214.846
214.878
214.897
214.905
214.905
214.897
214.878
214.846
214.798
214.731
214.648
214.558
214.48
214.549
435.869
435.161
435.601
436.113
436.583
436.96
437.23
437.403
437.501
437.543
437.539
437.485
437.367
437.163
436.858
436.446
435.948
435.415
434.962
435.664
944.48
944.444
950.699
959.452
970.245
983.14
997.781
1013.99
1031.58
1050.08
1069.23
1088.86
1108.56
1127.76
1145.91
1162.16
1175.6
1185.66
1191.9
1200.34
734.482
733.384
735.423
737.464
738.681
738.93
738.676
738.515
738.611
738.739
738.557
737.972
737.233
736.696
736.525
736.601
736.761
736.812
736.661
738.884
487.657
487.167
487.759
488.449
489.099
489.642
490.045
490.312
490.462
490.521
490.505
490.415
490.241
489.965
489.574
489.07
488.475
487.844
487.297
487.813
754.526
753.904
755.875
758.393
761.095
763.635
765.62
766.822
767.27
767.15
766.579
765.639
764.508
763.341
762.064
760.406
758.222
755.744
753.508
753.866
307.62
307.213
307.489
307.803
308.092
308.329
308.506
308.625
308.697
308.73
308.73
308.697
308.625
308.505
308.329
308.092
307.804
307.489
307.214
307.621
236.251
236.133
236.241
236.366
236.48
236.57
236.633
236.671
236.692
236.7
236.7
236.692
236.672
236.633
236.571
236.481
236.367
236.241
236.133
236.252
1770.3
1749.71
1742.33
1736.19
1729.2
1714.9
1692.57
1660.85
1623.8
1579.65
1526.4
1464.98
1401.74
1340
1279.52
1221.33
1173.92
1127.31
1087.33
1069.21
869.05
866.495
866.307
865.554
864.03
861.73
858.764
855.294
851.456
847.224
842.419
836.847
830.419
823.216
815.55
807.96
801.069
795.408
791.522
791.571
222.132
222.053
222.158
222.277
222.387
222.477
222.544
222.589
222.615
222.627
222.627
222.615
222.589
222.544
222.477
222.387
222.277
222.158
222.053
222.132
348.114
347.894
348.14
348.452
348.75
348.997
349.177
349.292
349.356
349.382
349.379
349.345
349.274
349.151
348.964
348.711
348.408
348.093
347.844
348.063
282.983
282.748
282.95
283.199
283.438
283.64
283.794
283.898
283.96
283.988
283.988
283.958
283.895
283.789
283.635
283.431
283.192
282.942
282.74
282.975
424.137
423.712
424.201
424.779
425.319
425.765
426.101
426.331
426.472
426.544
426.559
426.519
426.413
426.217
425.907
425.471
424.93
424.343
423.847
424.268
330.51
330.287
330.633
331.049
331.45
331.797
332.07
332.265
332.388
332.448
332.45
332.394
332.275
332.083
331.811
331.465
331.063
330.647
330.3
330.523
586.248
585.214
585.974
587.222
588.905
590.777
592.437
593.584
594.131
594.249
594.197
594.14
594.04
593.703
592.803
591.022
588.324
585.251
582.705
582.541
199.581
199.559
199.6
199.648
199.693
199.729
199.756
199.772
199.782
199.786
199.786
199.782
199.772
199.756
199.729
199.693
199.648
199.6
199.559
199.581
915.919
907.854
899.577
888.41
875.19
859.374
837.966
810.392
779.166
743.712
704.372
663.764
625.41
591.488
563.357
540.244
521.463
503.82
488.72
478.752
2878.5
2868.4
2862.04
2853.77
2844.56
2835.19
2825.05
2812.25
2796.31
2776.04
2751.89
2726.55
2704.83
2690
2683.02
2683.51
2689.85
2700.14
2710.38
2722.17
210.456
210.402
210.466
210.544
210.617
210.68
210.727
210.759
210.778
210.786
210.786
210.778
210.759
210.727
210.68
210.617
210.544
210.466
210.403
210.456
250.278
250.213
250.337
250.484
250.623
250.738
250.824
250.882
250.916
250.931
250.931
250.916
250.882
250.825
250.739
250.623
250.485
250.338
250.214
250.278
767.942
767.581
769.696
772.308
774.787
776.815
778.426
779.827
781.088
782.093
782.685
782.711
782.039
780.621
778.552
776.138
773.677
771.353
769.545
770.126
774.453
773.222
774.178
775.132
775.659
775.55
774.771
773.403
771.54
769.234
766.547
763.585
760.508
757.504
754.764
752.449
750.634
749.284
748.393
749.647
1682.9
1683.85
1694.13
1712.43
1735.82
1759.75
1777.35
1792.52
1805.01
1818.51
1831.26
1834.29
1821.71
1791.05
1746.04
1691.74
1634.56
1579.79
1536.71
1514.48
302.821
302.638
302.887
303.192
303.491
303.753
303.961
304.11
304.203
304.248
304.246
304.2
304.104
303.953
303.743
303.48
303.179
302.874
302.624
302.807
369.538
369.487
369.759
370.082
370.39
370.647
370.839
370.967
371.04
371.07
371.064
371.022
370.936
370.797
370.593
370.325
370.009
369.679
369.402
369.451
486.712
486.558
487.101
487.785
488.472
489.085
489.581
489.946
490.185
490.311
490.333
490.25
490.052
489.725
489.263
488.676
488.007
487.333
486.794
486.951
548.507
548.157
549.133
550.362
551.58
552.641
553.473
554.06
554.414
554.549
554.466
554.148
553.568
552.702
551.568
550.235
548.812
547.444
546.381
546.676
194.028
194.023
194.048
194.077
194.103
194.124
194.138
194.146
194.151
194.152
194.152
194.151
194.146
194.138
194.124
194.103
194.077
194.048
194.023
194.028
1153.35
1153.22
1153.18
1153.29
1153.67
1154.31
1155
1155.28
1154.62
1152.45
1148.49
1142.81
1135.93
1128.68
1121.97
1116.59
1112.92
1110.86
1110.01
1109.81
1973.32
1973.27
1973.17
1973.04
1972.87
1972.69
1972.51
1972.34
1972.18
1972.05
1971.95
1971.88
1971.84
1971.82
1971.83
1971.85
1971.88
1971.91
1971.94
1971.95
1974.58
1974.51
1974.37
1974.17
1973.94
1973.67
1973.4
1973.13
1972.89
1972.67
1972.49
1972.35
1972.25
1972.19
1972.15
1972.14
1972.15
1972.16
1972.17
1972.18
1964.52
1964.47
1964.36
1964.22
1964.05
1963.88
1963.73
1963.61
1963.54
1963.53
1963.58
1963.7
1963.88
1964.1
1964.34
1964.59
1964.83
1965.03
1965.17
1965.24
1925.5
1925.55
1925.62
1925.74
1925.93
1926.2
1926.57
1927.06
1927.69
1928.46
1929.38
1930.42
1931.55
1932.74
1933.92
1935.03
1936.01
1936.81
1937.37
1937.64
1372.17
1367.71
1361.45
1352.91
1342.75
1331.22
1318.36
1304.28
1289.45
1274.62
1260.47
1247.31
1235.15
1223.81
1213.16
1203.25
1194.51
1187.53
1182.93
1181.5
1673.85
1671.01
1665.61
1657.77
1647.7
1635.66
1621.98
1606.98
1590.89
1573.91
1556.16
1537.78
1518.94
1499.97
1481.38
1463.88
1448.38
1435.85
1427.1
1422.58
1877.61
1878.31
1879.67
1881.71
1884.43
1887.74
1891.5
1895.52
1899.61
1903.57
1907.24
1910.55
1913.47
1916.03
1918.28
1920.24
1921.91
1923.25
1924.21
1924.73
2028.38
2029.38
2035.56
2046.25
2059.96
2075.11
2090.46
2105.39
2119.81
2133.9
2147.81
2161.5
2174.72
2187.1
2198.27
2207.94
2216
2222.62
2228.24
2234.76
1971.45
1971.45
1971.44
1971.41
1971.35
1971.23
1971.05
1970.8
1970.46
1970.05
1969.57
1969.03
1968.44
1967.83
1967.22
1966.65
1966.15
1965.74
1965.45
1965.3
1974.38
1974.35
1974.3
1974.23
1974.15
1974.05
1973.94
1973.83
1973.72
1973.62
1973.52
1973.44
1973.37
1973.31
1973.27
1973.24
1973.21
1973.2
1973.19
1973.19
1972.03
1971.94
1971.78
1971.55
1971.27
1970.95
1970.61
1970.27
1969.95
1969.65
1969.4
1969.19
1969.04
1968.93
1968.86
1968.83
1968.83
1968.83
1968.85
1968.86
1923.78
1926.4
1931.35
1938.5
1947.84
1959.04
1971.69
1985.47
2000.17
2015.68
2031.86
2048.47
2065.15
2081.49
2097.04
2111.3
2123.71
2133.74
2141
2144.54
1444.06
1442.11
1438.47
1432.18
1423.26
1411.92
1398.49
1383.45
1367.36
1350.83
1334.5
1318.88
1304.16
1290.27
1277.1
1264.65
1253.17
1243.27
1236.15
1232.59
1546.55
1544.31
1540.56
1534.14
1525.29
1514.58
1502.75
1490.5
1478.45
1467.01
1456.36
1446.4
1436.77
1426.91
1416.25
1404.52
1392.11
1380.25
1371.06
1366.22
2012.16
2012.33
2012.67
2013.16
2013.76
2014.43
2015.11
2015.75
2016.28
2016.65
2016.84
2016.83
2016.62
2016.23
2015.72
2015.15
2014.59
2014.11
2013.75
2013.56
1895.92
1896.1
1896.48
1897.11
1898.06
1899.37
1901.06
1903.14
1905.58
1908.33
1911.31
1914.47
1917.73
1921.02
1924.23
1927.25
1929.95
1932.18
1933.78
1934.59
1973.62
1973.61
1973.58
1973.55
1973.5
1973.45
1973.4
1973.34
1973.29
1973.23
1973.18
1973.13
1973.08
1973.05
1973.01
1972.99
1972.97
1972.95
1972.94
1972.94
1940.51
1940.36
1940.07
1939.65
1939.12
1938.51
1937.84
1937.14
1936.45
1935.78
1935.17
1934.63
1934.16
1933.78
1933.47
1933.24
1933.08
1932.97
1932.9
1932.87
1935.75
1935.77
1935.81
1935.89
1936.01
1936.19
1936.43
1936.76
1937.17
1937.67
1938.24
1938.88
1939.57
1940.27
1940.96
1941.6
1942.17
1942.62
1942.94
1943.11
1915.13
1915.13
1915.13
1915.14
1915.16
1915.21
1915.29
1915.41
1915.57
1915.78
1916.04
1916.33
1916.65
1916.99
1917.32
1917.62
1917.89
1918.11
1918.27
1918.34
1828.55
1827.66
1827.54
1827.72
1827.57
1826.39
1823.55
1818.6
1811.43
1802.31
1791.8
1780.67
1769.72
1759.7
1751.15
1744.43
1739.65
1736.72
1735.41
1735.42
1970.28
1970.23
1970.12
1969.97
1969.78
1969.56
1969.31
1969.05
1968.77
1968.5
1968.24
1967.99
1967.76
1967.55
1967.37
1967.22
1967.1
1967
1966.94
1966.91
2077.78
2077.14
2075.8
2073.75
2070.97
2067.44
2063.22
2058.39
2053.06
2047.39
2041.51
2035.55
2029.63
2023.87
2018.42
2013.43
2009.1
2005.63
2003.19
2001.93
1937.8
1937.76
1937.69
1937.6
1937.51
1937.43
1937.38
1937.38
1937.44
1937.58
1937.78
1938.05
1938.38
1938.75
1939.13
1939.5
1939.84
1940.11
1940.31
1940.41
1972.03
1972.05
1972.06
1972.08
1972.1
1972.12
1972.14
1972.16
1972.17
1972.18
1972.19
1972.2
1972.21
1972.22
1972.22
1972.23
1972.22
1972.22
1972.22
1972.21
1954.44
1954.51
1954.63
1954.8
1955.03
1955.31
1955.63
1955.98
1956.37
1956.78
1957.22
1957.66
1958.1
1958.52
1958.91
1959.26
1959.56
1959.79
1959.94
1960.01
1965.92
1965.91
1965.87
1965.81
1965.74
1965.67
1965.59
1965.52
1965.45
1965.4
1965.36
1965.33
1965.33
1965.34
1965.35
1965.38
1965.41
1965.43
1965.45
1965.46
1975.74
1975.7
1975.62
1975.52
1975.39
1975.24
1975.09
1974.94
1974.79
1974.66
1974.55
1974.45
1974.38
1974.32
1974.28
1974.26
1974.25
1974.24
1974.24
1974.24
1898.47
1898.59
1898.85
1899.3
1899.95
1900.8
1901.79
1902.86
1903.95
1905.04
1906.15
1907.31
1908.55
1909.86
1911.18
1912.42
1913.49
1914.3
1914.83
1915.08
1872.58
1873.09
1874.21
1876.01
1878.54
1881.76
1885.6
1889.94
1894.65
1899.66
1904.91
1910.38
1916.03
1921.73
1927.27
1932.39
1936.79
1940.24
1942.58
1943.77
2011.82
2011.93
2012.01
2011.88
2011.38
2010.47
2009.29
2008.09
2007.05
2006.29
2005.83
2005.65
2005.71
2005.94
2006.19
2006.33
2006.26
2006.05
2005.8
2005.64
1953.33
1953.27
1953.17
1953.02
1952.83
1952.6
1952.34
1952.06
1951.77
1951.47
1951.18
1950.91
1950.64
1950.4
1950.19
1950
1949.85
1949.74
1949.66
1949.62
1733.11
1733.17
1732.21
1729.84
1725.8
1720.03
1712.75
1704.29
1695.18
1686
1677.12
1668.51
1659.81
1650.53
1640.47
1629.99
1619.92
1611.29
1604.91
1601.26
1971.37
1971.33
1971.25
1971.14
1971
1970.85
1970.67
1970.49
1970.32
1970.14
1969.98
1969.83
1969.69
1969.58
1969.48
1969.4
1969.34
1969.29
1969.26
1969.24
1877
1879.05
1890.13
1906.61
1927.59
1952.52
1980.27
2009.21
2037.76
2064.9
2090.33
2113.93
2135.12
2153.01
2167.28
2178.36
2186.84
2193.02
2197.05
2204.42
1970.88
1970.84
1970.76
1970.65
1970.51
1970.34
1970.14
1969.93
1969.69
1969.45
1969.21
1968.97
1968.74
1968.52
1968.33
1968.16
1968.02
1967.91
1967.84
1967.8
2032.55
2035.38
2038.61
2044
2050.8
2057.53
2063.45
2069.36
2076.86
2087.21
2100.51
2115.45
2129.85
2141.45
2148.42
2150.1
2147.47
2142.76
2138.16
2133.93
1962.88
1962.83
1962.71
1962.55
1962.35
1962.11
1961.85
1961.58
1961.31
1961.04
1960.8
1960.57
1960.38
1960.21
1960.07
1959.96
1959.88
1959.82
1959.79
1959.77
1808.52
1808.44
1810.26
1813.18
1817.19
1822.33
1828.41
1835
1841.5
1847.41
1852.36
1856.17
1858.77
1860.02
1859.77
1858.09
1855.31
1852.11
1849.37
1848.5
1961.19
1961.08
1960.87
1960.58
1960.22
1959.8
1959.36
1958.9
1958.45
1958.04
1957.67
1957.35
1957.1
1956.9
1956.77
1956.68
1956.62
1956.6
1956.59
1956.59
1952.51
1952.38
1952.14
1951.78
1951.34
1950.83
1950.28
1949.71
1949.15
1948.63
1948.16
1947.75
1947.41
1947.15
1946.95
1946.81
1946.72
1946.66
1946.63
1946.62
1924.46
1924.44
1924.41
1924.36
1924.28
1924.18
1924.07
1923.98
1923.93
1923.92
1923.97
1924.07
1924.23
1924.42
1924.64
1924.86
1925.06
1925.22
1925.33
1925.39
1971.55
1971.5
1971.39
1971.23
1971.03
1970.8
1970.55
1970.29
1970.02
1969.76
1969.51
1969.29
1969.09
1968.91
1968.77
1968.65
1968.57
1968.51
1968.47
1968.45
2102.25
2101.19
2098.65
2094.54
2088.78
2081.42
2072.72
2063.07
2052.97
2042.88
2032.86
2022.57
2011.83
2000.92
1990.23
1980.27
1971.53
1964.49
1959.5
1956.84
2023.75
2023.4
2022.64
2021.5
2019.95
2018.02
2015.73
2013.11
2010.25
2007.22
2004.08
2000.91
1997.77
1994.73
1991.87
1989.27
1987.04
1985.27
1984.03
1983.38
1998.31
1998.12
1997.74
1997.13
1996.28
1995.24
1994.06
1992.83
1991.58
1990.35
1989.16
1988.03
1986.96
1985.95
1985
1984.13
1983.39
1982.82
1982.46
1982.29
1993.19
1993.4
1993.78
1994.3
1994.9
1995.48
1995.96
1996.25
1996.27
1995.99
1995.41
1994.55
1993.45
1992.22
1990.93
1989.69
1988.59
1987.71
1987.1
1986.78
1922.27
1922.49
1925.24
1929.59
1935.15
1941.63
1948.81
1956.51
1964.67
1973.35
1982.66
1992.6
2003.05
2013.69
2024.03
2033.55
2041.72
2048.1
2052.49
2056.03
1972.16
1972.1
1971.96
1971.75
1971.47
1971.12
1970.7
1970.21
1969.67
1969.09
1968.48
1967.85
1967.23
1966.63
1966.07
1965.56
1965.14
1964.8
1964.58
1964.46
1973.81
1973.78
1973.72
1973.63
1973.52
1973.39
1973.24
1973.08
1972.91
1972.74
1972.57
1972.41
1972.25
1972.11
1971.98
1971.87
1971.78
1971.72
1971.67
1971.65
1967.07
1967.05
1967.01
1966.96
1966.89
1966.81
1966.72
1966.62
1966.52
1966.42
1966.32
1966.22
1966.13
1966.05
1965.98
1965.92
1965.87
1965.84
1965.81
1965.8
1952.49
1952.52
1952.58
1952.67
1952.8
1952.96
1953.15
1953.37
1953.62
1953.89
1954.18
1954.48
1954.78
1955.07
1955.35
1955.59
1955.8
1955.96
1956.07
1956.13
1938.86
1938.94
1939.1
1939.33
1939.63
1939.99
1940.4
1940.83
1941.28
1941.75
1942.23
1942.71
1943.18
1943.63
1944.03
1944.38
1944.65
1944.85
1944.97
1945.02
2247.55
2249.29
2254.77
2262.64
2271.85
2281.73
2292.06
2302.86
2313.79
2323.88
2331.81
2336.56
2338.1
2337.39
2335.81
2334.49
2334.05
2334.44
2335.14
2337.14
1957.91
1957.88
1957.81
1957.72
1957.6
1957.46
1957.29
1957.11
1956.91
1956.71
1956.51
1956.31
1956.11
1955.93
1955.77
1955.63
1955.51
1955.42
1955.36
1955.33
1974.64
1974.61
1974.56
1974.47
1974.37
1974.25
1974.11
1973.96
1973.8
1973.64
1973.48
1973.33
1973.18
1973.05
1972.94
1972.84
1972.76
1972.7
1972.66
1972.64
1919.79
1920.09
1920.69
1921.59
1922.8
1924.3
1926.07
1928.06
1930.24
1932.55
1934.95
1937.4
1939.81
1942.12
1944.26
1946.13
1947.67
1948.85
1949.64
1950.03
2054.5
2054.41
2054.21
2053.87
2053.35
2052.64
2051.73
2050.67
2049.49
2048.23
2046.9
2045.53
2044.11
2042.68
2041.3
2040.02
2038.93
2038.08
2037.5
2037.22
2007.52
2006.42
2005.12
2003.35
2001.08
1998.33
1995.13
1991.49
1987.45
1983.08
1978.5
1973.83
1969.2
1964.77
1960.69
1957.12
1954.2
1952.03
1950.71
1950.36
3475.12
3475.01
3474.65
3474.13
3473.54
3472.96
3472.47
3472.13
3471.98
3472.05
3472.36
3472.9
3473.64
3474.55
3475.56
3476.58
3477.53
3478.33
3478.89
3479.1
2042.99
1869.84
2089.3
2000.13
1844.11
2091.07
2034.52
1945.21
2077.95
1855.52
2086.56
2044.04
1894.21
2023.24
2064.36
1968.66
2059.95
1960.21
2086.74
1944.5
3568.37
3568.19
3567.85
3567.37
3566.78
3566.15
3565.56
3565.07
3564.76
3564.67
3564.8
3565.15
3565.67
3566.33
3567.04
3567.75
3568.38
3568.88
3569.22
3569.4
1972.5
1972.5
1972.53
1972.57
1972.64
1972.74
1972.86
1973.02
1973.22
1973.46
1973.73
1974.04
1974.38
1974.72
1975.05
1975.35
1975.59
1975.78
1975.9
1975.97
1971.42
1971.42
1971.4
1971.38
1971.36
1971.33
1971.3
1971.27
1971.24
1971.21
1971.19
1971.17
1971.16
1971.15
1971.14
1971.14
1971.14
1971.14
1971.14
1971.15
2484.96
2484.58
2484.64
2484.99
2485.59
2486.33
2487.08
2487.76
2488.4
2489.1
2489.92
2490.88
2491.96
2493.08
2494.11
2494.87
2495.32
2495.51
2495.67
2496.12
2923.56
2924.65
2923.78
2923.14
2922.74
2922.44
2922.19
2922.03
2921.98
2922.06
2922.26
2922.58
2923.01
2923.54
2924.13
2924.73
2925.38
2926.2
2927.17
2926.11
2502.67
2501.6
2501.44
2501.79
2502.47
2503.31
2504.23
2505.16
2506.07
2506.93
2507.73
2508.45
2509.08
2509.58
2509.97
2510.26
2510.51
2510.84
2511.45
2512.82
3117.61
3116.85
3116.33
3115.82
3115.28
3114.71
3114.17
3113.69
3113.34
3113.16
3113.15
3113.33
3113.66
3114.09
3114.55
3114.98
3115.34
3115.63
3115.97
3116.62
2195.97
2182.44
2194.3
2185.25
2177.22
2205.3
2212.17
2203.55
2201.75
2189.41
2207.93
2206.93
2194.93
2209.85
2223.33
2221.76
2224.3
2217.03
2215.4
2199.91
1970.67
1970.66
1970.64
1970.61
1970.59
1970.56
1970.54
1970.54
1970.55
1970.58
1970.62
1970.68
1970.76
1970.84
1970.93
1971.01
1971.09
1971.15
1971.2
1971.22
3375.29
3375.09
3374.76
3374.4
3374.05
3373.74
3373.49
3373.34
3373.28
3373.33
3373.49
3373.75
3374.09
3374.48
3374.92
3375.36
3375.79
3376.19
3376.53
3376.74
2755.37
2754.06
2753.73
2753.67
2753.76
2753.93
2754.18
2754.5
2754.89
2755.35
2755.89
2756.48
2757.11
2757.73
2758.31
2758.83
2759.3
2759.76
2760.37
2761.82
2642.09
2639.88
2639.18
2639.09
2639.32
2639.68
2640.1
2640.53
2640.96
2641.39
2641.84
2642.29
2642.73
2643.12
2643.44
2643.71
2644.01
2644.49
2645.45
2647.79
3432.22
3432.08
3431.93
3431.71
3431.42
3431.08
3430.73
3430.4
3430.15
3429.99
3429.95
3430.02
3430.17
3430.38
3430.62
3430.84
3431.03
3431.16
3431.25
3431.36
1971.01
1970.22
1971.06
1970.77
1970.95
1973.75
1975.09
1975.03
1975.17
1974.75
1976.59
1977.4
1977.74
1980.08
1982.32
1983.18
1983.71
1983.05
1982.43
1980.91
3389.03
3388.98
3388.87
3388.73
3388.57
3388.41
3388.26
3388.13
3388.04
3387.99
3387.98
3388.01
3388.08
3388.18
3388.31
3388.44
3388.57
3388.69
3388.77
3388.81
3671.94
3668.5
3665.95
3664.99
3665.23
3666.24
3668.4
3672.32
3677.81
3684.32
3690.94
3695.76
3697.32
3696.22
3694.99
3695.22
3697.25
3700.46
3703.95
3707.11
3050.51
3050.37
3050.33
3050.3
3050.25
3050.17
3050.07
3049.95
3049.81
3049.67
3049.52
3049.37
3049.23
3049.09
3048.96
3048.85
3048.76
3048.68
3048.65
3048.76
3002.28
3002.28
3002.28
3002.28
3002.28
3002.3
3002.32
3002.35
3002.39
3002.43
3002.48
3002.52
3002.56
3002.6
3002.65
3002.69
3002.74
3002.78
3002.81
3002.82
3571.78
3571.82
3571.95
3572.01
3571.92
3571.67
3571.31
3570.94
3570.68
3570.61
3570.74
3571.02
3571.41
3571.83
3572.2
3572.44
3572.49
3572.39
3572.23
3572.16
3490.22
3490.22
3490.21
3490.19
3490.18
3490.21
3490.27
3490.37
3490.53
3490.73
3490.98
3491.27
3491.58
3491.91
3492.25
3492.57
3492.86
3493.1
3493.26
3493.33
2991.26
2991.43
2991.57
2991.76
2992.04
2992.39
2992.79
2993.19
2993.57
2993.91
2994.17
2994.37
2994.5
2994.58
2994.62
2994.67
2994.72
2994.8
2994.85
2994.77
2443.78
2440.1
2439.67
2439.84
2443.33
2451.49
2457.34
2458.12
2456.47
2455.13
2457.08
2459.06
2461.74
2468.22
2475.27
2478.87
2478.57
2474.39
2468.79
2465.6
3277.41
3276.42
3276.12
3276.02
3275.98
3275.96
3275.95
3275.94
3275.94
3275.94
3275.97
3276.03
3276.13
3276.27
3276.47
3276.71
3276.99
3277.32
3277.8
3278.89
3470.8
3470.79
3470.78
3470.76
3470.76
3470.78
3470.84
3470.93
3471.07
3471.26
3471.5
3471.78
3472.08
3472.4
3472.73
3473.03
3473.3
3473.53
3473.69
3473.77
3556.47
3556.44
3556.38
3556.32
3556.26
3556.2
3556.15
3556.08
3555.97
3555.83
3555.65
3555.45
3555.25
3555.06
3554.92
3554.81
3554.76
3554.76
3554.77
3554.79
3831.01
3823.53
3821.33
3818.49
3812.06
3802.78
3791.77
3782.78
3788.17
3800.9
3825.36
3849.1
3854.59
3845.41
3843.04
3843.84
3843.2
3837.49
3838.13
3842.84
3551.14
3551.55
3552.51
3553.95
3555.81
3557.98
3560.32
3562.62
3564.72
3566.51
3567.9
3568.93
3569.71
3570.33
3570.9
3571.5
3572.14
3572.76
3573.28
3573.67
5563.11
5562.92
5562.55
5562.07
5561.55
5561.04
5560.61
5560.33
5560.21
5560.3
5560.58
5561.05
5561.69
5562.47
5563.34
5564.23
5565.07
5565.78
5566.3
5566.58
5525.49
5522.83
5518.11
5512.11
5505.69
5499.56
5494.13
5489.51
5485.6
5482.28
5479.48
5477.3
5475.96
5475.7
5476.66
5478.81
5481.8
5485.04
5487.81
5489.47
4920.49
4918.26
4914.12
4908.43
4901.72
4894.47
4887.07
4879.78
4872.8
4866.28
4860.4
4855.33
4851.25
4848.31
4846.61
4846.08
4846.49
4847.44
4848.44
4849.11
6229.48
6228.45
6226.57
6224.13
6221.46
6218.87
6216.58
6214.71
6213.3
6212.38
6211.94
6212.01
6212.62
6213.77
6215.42
6217.45
6219.64
6221.68
6223.28
6224.16
3928.43
3926.67
3924.41
3921.98
3919.54
3916.93
3913.94
3910.43
3906.28
3901.3
3895.35
3888.34
3880.57
3872.84
3866.18
3861.22
3857.92
3855.94
3854.98
3854.88
5747.45
5745.98
5743.25
5739.6
5735.48
5731.28
5727.31
5723.78
5720.78
5718.39
5716.63
5715.55
5715.19
5715.55
5716.59
5718.17
5720.04
5721.88
5723.36
5724.19
4080.22
4083.68
4087.58
4090.38
4086.95
4075.31
4057.36
4036.81
4003.63
3959.23
3912.65
3877.92
3857.83
3842
3819.18
3792.38
3777.97
3774.01
3767.58
3760.79
5857.99
5857.85
5857.6
5857.28
5856.91
5856.54
5856.19
5855.91
5855.7
5855.59
5855.58
5855.67
5855.86
5856.12
5856.45
5856.81
5857.17
5857.5
5857.74
5857.88
3252.16
3251.12
3250.48
3249.07
3247.52
3244.58
3242
3240.78
3240.95
3240.8
3241.82
3242.27
3242.21
3243.39
3245.68
3247.73
3250.05
3251.43
3252.26
3252.18
2101.94
2101.91
2101.82
2101.69
2101.56
2101.5
2101.56
2101.78
2102.16
2102.69
2103.32
2104.05
2104.84
2105.69
2106.55
2107.38
2108.12
2108.73
2109.14
2109.34
6159.94
6158.69
6156.47
6153.65
6150.63
6147.8
6145.39
6143.53
6142.22
6141.44
6141.17
6141.39
6142.13
6143.42
6145.24
6147.48
6149.92
6152.22
6154.03
6155.06
3393.34
3392.42
3391.46
3389.84
3387.67
3385.22
3382.79
3380.89
3379.79
3379.41
3379.8
3380.72
3381.92
3383.5
3385.36
3387.27
3389.02
3390.54
3391.62
3392.6
5534.26
5533.95
5533.35
5532.55
5531.62
5530.65
5529.69
5528.77
5527.91
5527.14
5526.46
5525.9
5525.47
5525.19
5525.07
5525.1
5525.24
5525.44
5525.62
5525.72
6028.07
6027.9
6027.6
6027.2
6026.73
6026.26
6025.81
6025.43
6025.14
6024.95
6024.88
6024.94
6025.1
6025.38
6025.73
6026.13
6026.54
6026.9
6027.18
6027.33
2134.7
2134.56
2134.32
2134
2133.73
2133.59
2133.61
2133.76
2134.06
2134.51
2135.01
2135.48
2135.98
2136.57
2137.25
2138.01
2138.82
2139.65
2140.37
2140.85
1952.92
1952.89
1952.83
1952.74
1952.63
1952.52
1952.42
1952.34
1952.28
1952.25
1952.27
1952.33
1952.45
1952.6
1952.79
1953.01
1953.23
1953.42
1953.57
1953.65
2219.17
2219.05
2218.87
2218.66
2218.47
2218.33
2218.29
2218.37
2218.57
2218.91
2219.36
2219.91
2220.55
2221.27
2222.03
2222.77
2223.42
2223.92
2224.25
2224.42
6096.33
6095.16
6093.04
6090.28
6087.24
6084.29
6081.67
6079.54
6077.97
6076.98
6076.55
6076.7
6077.45
6078.83
6080.79
6083.18
6085.75
6088.16
6090.04
6091.08
4982.47
4982.12
4981.75
4981.11
4980.4
4979.73
4979.11
4978.45
4977.63
4976.67
4975.9
4975.76
4976.38
4977.78
4979.38
4981.18
4983.01
4984.85
4986.33
4987.11
2079.9
2079.86
2079.79
2079.71
2079.65
2079.64
2079.69
2079.81
2080.02
2080.28
2080.6
2080.95
2081.32
2081.71
2082.11
2082.5
2082.86
2083.17
2083.4
2083.52
5384.38
5384.27
5384.1
5383.88
5383.62
5383.35
5383.1
5382.88
5382.74
5382.67
5382.69
5382.8
5382.99
5383.23
5383.5
5383.78
5384.03
5384.24
5384.39
5384.49
2478.28
2477.97
2477.43
2476.75
2476.03
2475.36
2474.81
2474.47
2474.36
2474.51
2474.9
2475.53
2476.36
2477.35
2478.45
2479.59
2480.7
2481.7
2482.47
2482.91
2795.45
2794.94
2794.13
2793.17
2792.22
2791.29
2790.42
2789.62
2788.98
2788.54
2788.33
2788.34
2788.55
2788.92
2789.42
2790.05
2790.78
2791.53
2792.17
2792.55
1665.3
1665.28
1665.23
1665.17
1665.09
1664.99
1664.88
1664.77
1664.68
1664.62
1664.6
1664.62
1664.69
1664.81
1664.96
1665.12
1665.29
1665.44
1665.55
1665.61
4295.7
4295.63
4295.48
4295.23
4294.83
4294.32
4293.73
4293.1
4292.56
4292.21
4292.18
4292.47
4293.03
4293.72
4294.39
4294.95
4295.42
4295.86
4296.32
4296.66
3108.34
3105.7
3103.77
3101.8
3100.4
3098.89
3096.99
3095.86
3095.5
3095.55
3096.94
3099.89
3102
3104.15
3107.35
3110.51
3114.01
3116.72
3118.05
3118.19
2777.42
2776.91
2776.1
2775.14
2774.05
2772.79
2771.36
2769.98
2768.98
2768.71
2769.33
2770.8
2772.96
2775.52
2778.21
2780.77
2783
2784.82
2786.12
2786.86
3718.04
3717.43
3716.7
3715.44
3713.64
3711.6
3709.51
3707.82
3706.73
3706.32
3706.56
3707.32
3708.49
3709.97
3711.62
3713.3
3714.91
3716.23
3717.25
3718.2
2709.51
2709.48
2709.44
2709.32
2709.14
2708.94
2708.76
2708.62
2708.52
2708.41
2708.3
2708.23
2708.29
2708.52
2708.95
2709.49
2710.05
2710.53
2710.86
2711.03
2425.61
2425.28
2424.77
2424.14
2423.49
2422.88
2422.39
2422.08
2422
2422.18
2422.63
2423.34
2424.29
2425.42
2426.68
2427.99
2429.24
2430.33
2431.14
2431.6
4047.54
4046.28
4045.08
4044.33
4043.38
4042.61
4041.51
4041.23
4041.26
4042.27
4042.57
4043.15
4043.07
4042.69
4043.68
4044.73
4046.76
4048.36
4047.87
4047.41
6230.24
6228.91
6226.57
6223.6
6220.48
6217.58
6215.15
6213.31
6212.06
6211.37
6211.22
6211.6
6212.54
6214.05
6216.09
6218.56
6221.2
6223.69
6225.65
6226.76
5433.5
5433.23
5432.76
5432.11
5431.37
5430.63
5429.99
5429.53
5429.32
5429.37
5429.71
5430.32
5431.19
5432.29
5433.52
5434.8
5436.01
5437.02
5437.74
5438.13
2270.83
2270.97
2271.18
2271.37
2271.51
2271.58
2271.66
2271.8
2272.06
2272.51
2273.17
2274.03
2275.06
2276.16
2277.27
2278.29
2279.16
2279.85
2280.3
2280.52
5746.35
5746.21
5745.96
5745.62
5745.23
5744.84
5744.49
5744.19
5743.99
5743.89
5743.91
5744.04
5744.27
5744.58
5744.96
5745.36
5745.76
5746.11
5746.36
5746.51
5395.28
5394.71
5393.64
5392.14
5390.35
5388.38
5386.35
5384.35
5382.46
5380.76
5379.29
5378.09
5377.19
5376.58
5376.24
5376.12
5376.15
5376.27
5376.4
5376.48
6023.09
6022.63
6021.84
6020.81
6019.68
6018.58
6017.62
6016.87
6016.38
6016.21
6016.35
6016.83
6017.62
6018.72
6020.06
6021.54
6023.04
6024.39
6025.41
6025.99
1852.34
1852.39
1852.49
1852.65
1852.85
1853.09
1853.37
1853.68
1854.02
1854.37
1854.72
1855.06
1855.39
1855.69
1855.95
1856.18
1856.36
1856.5
1856.6
1856.64
1629.48
1629.3
1628.98
1628.56
1628.12
1627.76
1627.53
1627.46
1627.55
1627.77
1628.07
1628.39
1628.68
1628.89
1628.98
1628.96
1628.84
1628.68
1628.53
1628.44
2175.19
2175.06
2174.87
2174.66
2174.48
2174.35
2174.29
2174.32
2174.45
2174.69
2175.04
2175.47
2175.99
2176.58
2177.22
2177.87
2178.48
2179.01
2179.41
2179.63
1706.88
1706.79
1706.63
1706.4
1706.13
1705.82
1705.49
1705.16
1704.87
1704.63
1704.45
1704.35
1704.33
1704.38
1704.49
1704.66
1704.84
1705.03
1705.17
1705.26
3957.72
3957.24
3955.86
3953.87
3951.44
3948.63
3945.45
3941.94
3938.14
3934.18
3930.18
3926.27
3922.59
3919.31
3916.58
3914.51
3913.14
3912.4
3912.05
3911.67
1620.65
1620.48
1620.13
1619.7
1619.42
1619.52
1620.06
1621.01
1622.23
1623.55
1624.86
1626.05
1626.97
1627.5
1627.6
1627.35
1626.94
1626.54
1626.23
1626.05
3888.52
3887.51
3885.34
3881.81
3877.23
3871.94
3866.23
3860.26
3853.9
3846.9
3839.19
3831.01
3822.82
3815.08
3808.11
3802.35
3798.06
3795.07
3793.17
3792.15
2956.73
2956.44
2955.83
2954.96
2953.94
2952.83
2951.75
2950.86
2950.21
2949.78
2949.51
2949.36
2949.41
2949.8
2950.5
2951.35
2952.28
2953.25
2953.95
2954.31
1629.4
1627.55
1624.03
1619.18
1613.53
1607.68
1602.09
1597.07
1592.82
1589.63
1587.87
1587.85
1589.71
1593.26
1597.92
1602.85
1607.24
1610.56
1612.67
1613.66
5121.88
5156.2
5175.34
5159.07
5127.57
5104.2
5088.23
5056.2
5018.16
4986.04
4956.26
4937.19
4945.7
4981.77
5009.81
5016.86
5002.9
4981.77
4965.67
4963.75
1565.9
1564.96
1563.1
1560.4
1557
1553.12
1549.08
1545.2
1541.85
1539.38
1538.07
1538.07
1539.36
1541.76
1544.91
1548.41
1551.82
1554.75
1556.89
1558.03
1555.75
1555.65
1555.42
1555.07
1554.59
1553.95
1553.18
1552.27
1551.24
1550.14
1548.99
1547.85
1546.75
1545.75
1544.88
1544.14
1543.56
1543.12
1542.83
1542.68
2368.2
2368.19
2368.17
2368.16
2368.15
2368.17
2368.2
2368.26
2368.36
2368.49
2368.65
2368.84
2369.04
2369.26
2369.49
2369.7
2369.9
2370.06
2370.17
2370.24
2836.21
2836.12
2835.95
2835.67
2835.32
2834.9
2834.48
2834.09
2833.8
2833.6
2833.51
2833.53
2833.64
2833.82
2834.05
2834.31
2834.56
2834.78
2834.95
2835.05
2599.54
2599.41
2599.17
2598.83
2598.42
2597.97
2597.51
2597.07
2596.67
2596.32
2596.03
2595.79
2595.6
2595.45
2595.34
2595.26
2595.2
2595.15
2595.12
2595.11
2506.24
2506.2
2506.14
2506.05
2505.95
2505.86
2505.78
2505.73
2505.7
2505.71
2505.74
2505.81
2505.91
2506.03
2506.17
2506.32
2506.46
2506.58
2506.67
2506.72
1594.91
1595.03
1595.24
1595.52
1595.84
1596.15
1596.43
1596.67
1596.87
1597.05
1597.22
1597.41
1597.63
1597.89
1598.18
1598.49
1598.8
1599.06
1599.25
1599.35
1533.05
1533.06
1533.08
1533.05
1532.95
1532.72
1532.32
1531.72
1530.91
1529.83
1528.45
1526.71
1524.65
1522.37
1520.06
1517.93
1516.12
1514.78
1513.92
1513.52
1536.63
1536.32
1536.14
1536.67
1538.47
1541.76
1546.43
1551.97
1557.6
1562.4
1565.55
1566.49
1565.1
1561.62
1556.57
1550.62
1544.49
1538.95
1534.73
1532.45
3665.31
3667.23
3671.95
3678.34
3683.33
3685.61
3686.2
3686.54
3687.1
3688.93
3693.07
3698.91
3704.76
3709.87
3714.42
3717.83
3719.49
3718.69
3716.23
3714.04
5311.73
5311.22
5310.1
5308.42
5306.24
5303.67
5300.86
5297.99
5295.2
5292.6
5290.3
5288.32
5286.69