/*--------------------------------*- C++ -*----------------------------------*\
| =========                 |                                                 |
| \\      /  F ield         | OpenFOAM: The Open Source CFD Toolbox           |
|  \\    /   O peration     | Version:  4.1                                   |
|   \\  /    A nd           | Web:      www.OpenFOAM.org                      |
|    \\/     M anipulation  |                                                 |
\*---------------------------------------------------------------------------*/
FoamFile
{
    version     2.0;
    format      ascii;
    class       volScalarField;
    location    "0.019";
    object      k;
}
// * * * * * * * * * * * * * * * * * * * * * * * * * * * * * * * * * * * * * //

dimensions      [0 2 -2 0 0 0 0];

internalField   nonuniform List<scalar> 
278640
(
1.68618
1.68479
1.6864
1.68821
1.6899
1.69134
1.69245
1.69324
1.69374
1.69398
1.69397
1.69373
1.69323
1.69244
1.69132
1.68988
1.68818
1.68637
1.68476
1.68615
1.37242
1.37103
1.37176
1.37261
1.37338
1.374
1.37446
1.37476
1.37494
1.37502
1.37502
1.37494
1.37476
1.37446
1.374
1.37338
1.37261
1.37176
1.37103
1.37242
1.78744
1.76754
1.7613
1.76731
1.78591
1.81447
1.85081
1.89557
1.92887
1.94414
1.94465
1.95027
1.96209
1.97621
1.99003
1.99198
1.982
1.97021
1.96107
1.96459
1.3341
1.33316
1.33381
1.33453
1.33519
1.33573
1.33613
1.33641
1.33657
1.33664
1.33664
1.33657
1.33641
1.33613
1.33573
1.33519
1.33453
1.33381
1.33316
1.3341
6.72278
6.70331
6.71193
6.72158
6.73269
6.74314
6.74792
6.74542
6.73421
6.7151
6.69315
6.67528
6.67261
6.69225
6.73535
6.79475
6.85976
6.91883
6.96094
7.00973
2.19725
2.19359
2.19681
2.20047
2.2039
2.20685
2.20918
2.21083
2.21181
2.21218
2.21196
2.21117
2.20979
2.20782
2.2053
2.20229
2.19891
2.19536
2.19222
2.19592
2.05961
2.05636
2.05859
2.06117
2.06363
2.06575
2.06743
2.06864
2.06942
2.06979
2.06977
2.06934
2.06851
2.06725
2.06553
2.06339
2.06092
2.05832
2.05608
2.05932
2.88531
2.88203
2.88665
2.8924
2.89821
2.90349
2.90793
2.9114
2.91388
2.91537
2.91585
2.9153
2.91369
2.91102
2.90736
2.90287
2.89788
2.89286
2.88881
2.8924
1.16041
1.16012
1.16035
1.16062
1.16086
1.16106
1.1612
1.1613
1.16136
1.16138
1.16138
1.16136
1.1613
1.1612
1.16106
1.16086
1.16062
1.16035
1.16012
1.16041
1.20857
1.20832
1.20869
1.20912
1.20954
1.20989
1.21017
1.21036
1.21048
1.21054
1.21054
1.21048
1.21036
1.21016
1.20989
1.20954
1.20912
1.20869
1.20832
1.20857
1.88848
1.8866
1.88831
1.89034
1.89229
1.89395
1.89524
1.89615
1.89672
1.89699
1.897
1.89675
1.8962
1.8953
1.89402
1.89236
1.89041
1.88837
1.88665
1.88852
2.5993
2.59626
2.6034
2.61279
2.62226
2.6302
2.63582
2.63921
2.64105
2.64226
2.64349
2.64519
2.64754
2.65075
2.65486
2.65967
2.66442
2.66807
2.67006
2.67809
2.68681
2.68283
2.68724
2.69283
2.6985
2.70365
2.70795
2.71138
2.71407
2.71615
2.71765
2.71846
2.71834
2.71695
2.71406
2.7097
2.70429
2.6986
2.69396
2.69779
2.04175
2.04037
2.04239
2.04483
2.04722
2.04934
2.05104
2.05227
2.05305
2.0534
2.05335
2.0529
2.05202
2.05069
2.04891
2.04673
2.04428
2.04181
2.03976
2.04114
2.56329
2.56185
2.56582
2.57034
2.57459
2.5782
2.58099
2.58296
2.58417
2.58475
2.58478
2.58423
2.58294
2.58073
2.57755
2.57353
2.56897
2.56433
2.56039
2.56189
1.52307
1.52176
1.52289
1.52423
1.52551
1.52661
1.52747
1.52809
1.52849
1.52868
1.52868
1.52849
1.5281
1.52747
1.52661
1.52551
1.52423
1.52289
1.52176
1.52308
1.2844
1.28401
1.28449
1.28508
1.28564
1.28611
1.28647
1.28671
1.28686
1.28692
1.28692
1.28686
1.28671
1.28647
1.28611
1.28564
1.28508
1.28449
1.28401
1.2844
4.52813
4.52141
4.53503
4.54308
4.54603
4.54857
4.55544
4.56808
4.5805
4.58892
4.58967
4.58495
4.57139
4.54424
4.4998
4.44167
4.37848
4.32031
4.27809
4.27081
3.14782
3.14357
3.14866
3.15517
3.16188
3.16798
3.17277
3.17589
3.17729
3.17706
3.17532
3.17205
3.16718
3.16079
3.15306
3.14433
3.13518
3.12647
3.1197
3.1229
1.23751
1.23722
1.2377
1.23826
1.23881
1.23928
1.23965
1.23991
1.24008
1.24016
1.24016
1.24008
1.23991
1.23965
1.23928
1.23881
1.23826
1.2377
1.23722
1.23751
1.64766
1.64711
1.64818
1.64954
1.6509
1.65208
1.653
1.65366
1.65407
1.65427
1.65427
1.65407
1.65366
1.653
1.65207
1.65089
1.64954
1.64818
1.64711
1.64765
1.44743
1.44664
1.44751
1.4486
1.44969
1.45065
1.45142
1.45198
1.45233
1.4525
1.4525
1.45233
1.45198
1.45142
1.45065
1.44969
1.4486
1.44751
1.44664
1.44743
1.86396
1.86276
1.86452
1.86668
1.86878
1.87061
1.87205
1.87308
1.87372
1.87404
1.87405
1.87375
1.87312
1.8721
1.87067
1.86884
1.86674
1.86458
1.86282
1.86402
1.59944
1.59874
1.60011
1.60183
1.60354
1.60507
1.60633
1.60726
1.60786
1.60816
1.60816
1.60786
1.60726
1.60633
1.60507
1.60354
1.60183
1.60012
1.59874
1.59944
2.3284
2.32656
2.33053
2.3353
2.33989
2.34379
2.34674
2.34869
2.34972
2.34992
2.34935
2.34802
2.34592
2.343
2.33928
2.33487
2.33004
2.32522
2.3213
2.32317
1.15092
1.15084
1.15103
1.15126
1.15148
1.15167
1.15181
1.15191
1.15197
1.152
1.152
1.15197
1.15191
1.15181
1.15167
1.15148
1.15126
1.15103
1.15084
1.15092
4.30154
4.29453
4.29985
4.30685
4.31279
4.31686
4.3201
4.32351
4.32574
4.32686
4.32649
4.32458
4.31763
4.30184
4.27549
4.24061
4.2011
4.16188
4.13115
4.12125
4.11268
4.11708
4.12941
4.14091
4.14741
4.14734
4.14417
4.14215
4.14403
4.14873
4.15266
4.15359
4.15223
4.14869
4.14127
4.12892
4.11144
4.08997
4.0699
4.06042
1.19361
1.19341
1.19372
1.19409
1.19447
1.1948
1.19506
1.19524
1.19536
1.19542
1.19542
1.19536
1.19524
1.19506
1.1948
1.19447
1.19409
1.19372
1.19341
1.19361
1.33561
1.3354
1.33593
1.33658
1.33722
1.33778
1.33822
1.33853
1.33873
1.33882
1.33882
1.33873
1.33853
1.33822
1.33778
1.33722
1.33658
1.33593
1.3354
1.33561
2.5855
2.58408
2.58771
2.59227
2.59679
2.60073
2.60381
2.606
2.6074
2.60807
2.60801
2.60719
2.60553
2.60294
2.59935
2.59487
2.58985
2.58488
2.581
2.5823
2.85914
2.85625
2.86012
2.86495
2.86976
2.87411
2.8778
2.88083
2.88325
2.88509
2.88626
2.88663
2.88598
2.88416
2.88116
2.87709
2.87231
2.8674
2.86345
2.86631
3.19962
3.19116
3.18864
3.18767
3.18399
3.17887
3.1767
3.17832
3.185
3.1999
3.22522
3.26217
3.30092
3.33214
3.34959
3.35643
3.35637
3.35274
3.3497
3.35239
1.5168
1.5162
1.51723
1.51851
1.51982
1.52099
1.52196
1.52268
1.52315
1.52339
1.52339
1.52315
1.52268
1.52196
1.52099
1.51982
1.51852
1.51723
1.5162
1.5168
1.71685
1.71676
1.71781
1.71911
1.7204
1.72154
1.72245
1.7231
1.72352
1.72372
1.72372
1.72351
1.72309
1.72243
1.72152
1.72038
1.71909
1.71779
1.71674
1.71682
2.05128
2.05094
2.05282
2.05523
2.05768
2.0599
2.06172
2.06308
2.06395
2.06437
2.06435
2.06391
2.06301
2.06163
2.05979
2.05755
2.05508
2.05266
2.05077
2.05111
2.23812
2.23687
2.23962
2.24314
2.2467
2.24989
2.25248
2.25434
2.25547
2.25587
2.25559
2.25463
2.25298
2.25063
2.24758
2.24397
2.24004
2.23622
2.23327
2.23442
1.1286
1.12859
1.12871
1.12885
1.12898
1.12909
1.12918
1.12923
1.12927
1.12928
1.12928
1.12927
1.12923
1.12918
1.12909
1.12898
1.12885
1.12871
1.12859
1.1286
4.94493
4.94612
4.94997
4.95456
4.95875
4.96205
4.9646
4.96683
4.96924
4.97215
4.97566
4.97968
4.98396
4.98803
4.99135
4.99344
4.99409
4.99351
4.99242
4.99279
3.83236
3.8323
3.83219
3.83204
3.83186
3.83166
3.83146
3.83127
3.8311
3.83096
3.83086
3.8308
3.83077
3.83078
3.83082
3.83087
3.83093
3.831
3.83104
3.83107
3.78834
3.78829
3.78819
3.78805
3.78788
3.78769
3.78749
3.78729
3.7871
3.78693
3.78679
3.78666
3.78656
3.78649
3.78644
3.7864
3.78638
3.78637
3.78636
3.78635
3.93206
3.93192
3.93166
3.93129
3.93084
3.93036
3.92987
3.92941
3.92902
3.92873
3.92854
3.92846
3.92848
3.9286
3.92878
3.929
3.92923
3.92943
3.92958
3.92965
3.98542
3.98525
3.98491
3.98445
3.98392
3.98338
3.98289
3.9825
3.98227
3.98224
3.98242
3.98283
3.98344
3.9842
3.98507
3.98597
3.98681
3.98753
3.98806
3.98832
4.99187
4.98849
4.98705
4.98431
4.98033
4.97572
4.97149
4.96861
4.96767
4.96865
4.97084
4.97314
4.97455
4.97458
4.97334
4.97127
4.96873
4.96601
4.96367
4.965
4.56584
4.56492
4.56381
4.5626
4.56118
4.55931
4.55671
4.55308
4.54824
4.54207
4.53452
4.52559
4.51532
4.50394
4.49187
4.47986
4.46886
4.45991
4.45381
4.45097
4.04798
4.04805
4.04818
4.04842
4.04886
4.04951
4.05031
4.05118
4.05199
4.05267
4.05321
4.05366
4.05417
4.05486
4.05585
4.05714
4.0586
4.06002
4.06116
4.06177
3.57402
3.57431
3.57837
3.58616
3.59693
3.60942
3.62212
3.63357
3.64268
3.64893
3.65231
3.6533
3.65277
3.65178
3.65139
3.6523
3.65468
3.65822
3.66228
3.66732
4.07902
4.07901
4.07899
4.07897
4.07893
4.07888
4.07882
4.07874
4.07865
4.07855
4.07844
4.07831
4.07819
4.07805
4.07791
4.07778
4.07766
4.07756
4.07749
4.07745
3.82789
3.82786
3.82781
3.82774
3.82765
3.82754
3.82743
3.82733
3.82722
3.82713
3.82705
3.82699
3.82694
3.82691
3.82689
3.82688
3.82688
3.82689
3.82689
3.82689
3.87676
3.87668
3.87653
3.87632
3.87607
3.87579
3.87551
3.87524
3.87499
3.87478
3.87462
3.87451
3.87445
3.87444
3.87446
3.87451
3.87457
3.87464
3.87469
3.87472
3.55953
3.56069
3.56333
3.56663
3.57012
3.57336
3.57615
3.57858
3.58092
3.58362
3.58693
3.59094
3.5955
3.60028
3.60501
3.60937
3.61316
3.61621
3.61844
3.61987
4.85796
4.85871
4.86392
4.87138
4.88028
4.88984
4.89908
4.90698
4.91261
4.91531
4.91472
4.9108
4.90378
4.89418
4.88275
4.87055
4.85884
4.84888
4.84196
4.84044
4.59765
4.60143
4.61026
4.62371
4.6406
4.65922
4.67721
4.69209
4.7019
4.70541
4.70215
4.6922
4.67642
4.65665
4.63545
4.61557
4.59911
4.58711
4.57981
4.57707
4.06292
4.06289
4.06287
4.06285
4.06284
4.06283
4.06282
4.06282
4.06285
4.06292
4.06303
4.06321
4.06345
4.06375
4.06408
4.06444
4.06477
4.06505
4.06526
4.0654
4.17712
4.17664
4.17577
4.17463
4.17332
4.17196
4.1707
4.16969
4.1691
4.16904
4.16957
4.17072
4.17246
4.17467
4.17719
4.1798
4.18229
4.18443
4.18602
4.18686
3.77663
3.77662
3.7766
3.77656
3.77651
3.77646
3.7764
3.77634
3.77628
3.77622
3.77616
3.7761
3.77605
3.776
3.77596
3.77593
3.7759
3.77588
3.77586
3.77586
4.10606
4.10603
4.10594
4.1058
4.10563
4.10544
4.10523
4.10501
4.10481
4.10461
4.10443
4.10426
4.1041
4.10397
4.10386
4.10376
4.10368
4.10362
4.10358
4.10354
3.94632
3.94624
3.94609
3.94588
3.94564
3.94539
3.94515
3.94495
3.94481
3.94474
3.94475
3.94485
3.94502
3.94525
3.94551
3.94579
3.94606
3.94628
3.94645
3.94653
4.03703
4.03706
4.0371
4.03715
4.03722
4.0373
4.03739
4.03749
4.0376
4.03772
4.03784
4.03797
4.03809
4.0382
4.0383
4.03838
4.03844
4.03849
4.03852
4.03852
4.03799
4.0364
4.03653
4.0379
4.04013
4.04279
4.04555
4.04814
4.05034
4.05204
4.05315
4.05361
4.05343
4.05268
4.05155
4.05028
4.04917
4.04859
4.04894
4.0508
3.80505
3.80501
3.80494
3.80483
3.8047
3.80454
3.80437
3.80419
3.80401
3.80383
3.80366
3.8035
3.80335
3.80322
3.80311
3.80302
3.80295
3.8029
3.80286
3.80284
4.51868
4.51886
4.51907
4.51928
4.51938
4.51923
4.51871
4.51774
4.51623
4.51417
4.51157
4.50852
4.50511
4.50148
4.49782
4.49432
4.49119
4.48865
4.48684
4.48585
3.98434
3.98425
3.98408
3.98384
3.98354
3.98321
3.98287
3.98254
3.98223
3.98198
3.98177
3.98163
3.98154
3.98152
3.98153
3.98157
3.98163
3.98169
3.98174
3.98177
3.99933
3.99926
3.99913
3.99894
3.99871
3.99843
3.99813
3.99782
3.99751
3.99722
3.99696
3.99673
3.99655
3.99639
3.99627
3.99618
3.99611
3.99606
3.99603
3.99601
3.98042
3.98035
3.98021
3.98002
3.97978
3.97952
3.97925
3.97901
3.9788
3.97865
3.97857
3.97856
3.97861
3.97873
3.97888
3.97904
3.9792
3.97934
3.97944
3.97948
3.85109
3.85106
3.85101
3.85093
3.85084
3.85073
3.85062
3.85051
3.85041
3.85032
3.85025
3.85019
3.85016
3.85014
3.85013
3.85014
3.85015
3.85016
3.85017
3.85017
3.7803
3.78027
3.78021
3.78013
3.78003
3.77992
3.7798
3.77968
3.77956
3.77945
3.77935
3.77926
3.77918
3.77911
3.77906
3.77902
3.77899
3.77897
3.77896
3.77895
4.0427
4.0427
4.04269
4.04271
4.04277
4.04288
4.04305
4.04326
4.0435
4.04375
4.04401
4.04428
4.04458
4.04492
4.04529
4.04566
4.04601
4.04629
4.0465
4.0466
4.15381
4.15317
4.15229
4.15158
4.15135
4.15182
4.15298
4.15465
4.1565
4.1582
4.15957
4.16062
4.16152
4.16256
4.16398
4.16585
4.16803
4.17026
4.17214
4.1733
4.54403
4.54413
4.5441
4.54364
4.54249
4.54059
4.5382
4.53573
4.53351
4.53166
4.53021
4.5291
4.52821
4.52738
4.52641
4.52517
4.52373
4.52237
4.52138
4.52085
3.932
3.93197
3.9319
3.93181
3.9317
3.93156
3.93142
3.93126
3.93111
3.93096
3.93081
3.93068
3.93057
3.93047
3.93039
3.93032
3.93027
3.93023
3.9302
3.93019
4.77988
4.77968
4.77856
4.77696
4.7749
4.77227
4.76882
4.76438
4.75888
4.75245
4.74529
4.73757
4.72936
4.72067
4.71148
4.70184
4.69216
4.68331
4.6764
4.67227
3.79523
3.79521
3.79515
3.79507
3.79497
3.79485
3.79472
3.79459
3.79446
3.79433
3.79421
3.7941
3.794
3.79392
3.79384
3.79378
3.79374
3.7937
3.79368
3.79367
3.09589
3.10026
3.10986
3.11999
3.12742
3.13147
3.13332
3.13436
3.13529
3.13632
3.13757
3.13941
3.1425
3.14699
3.15229
3.15787
3.16296
3.16668
3.16877
3.17158
3.81532
3.81529
3.81524
3.81516
3.81506
3.81494
3.81481
3.81467
3.81452
3.81437
3.81423
3.81409
3.81396
3.81385
3.81375
3.81366
3.8136
3.81355
3.81351
3.81349
4.09222
4.09565
4.0994
4.1049
4.11148
4.11777
4.12258
4.12534
4.12592
4.12449
4.12128
4.11642
4.10972
4.10056
4.08834
4.0733
4.05677
4.04096
4.02815
4.01945
3.93722
3.93716
3.93704
3.93686
3.93665
3.9364
3.93614
3.93588
3.93562
3.93539
3.93518
3.93501
3.93488
3.93478
3.93471
3.93467
3.93464
3.93463
3.93462
3.93462
4.53723
4.53499
4.5339
4.53114
4.52613
4.51937
4.51224
4.50633
4.50297
4.5028
4.50579
4.51123
4.51791
4.52429
4.52873
4.53006
4.52801
4.52361
4.51919
4.51802
3.88791
3.88785
3.88775
3.8876
3.88744
3.88726
3.88709
3.88694
3.88683
3.88677
3.88676
3.8868
3.8869
3.88703
3.88719
3.88736
3.88753
3.88768
3.88778
3.88784
3.90969
3.90964
3.90954
3.9094
3.90924
3.90905
3.90886
3.90869
3.90853
3.9084
3.90831
3.90826
3.90825
3.90827
3.90832
3.90838
3.90845
3.90852
3.90856
3.90859
4.14995
4.1499
4.1498
4.14963
4.14938
4.14905
4.14869
4.14833
4.14802
4.14777
4.14761
4.1475
4.14742
4.14736
4.14731
4.14724
4.14717
4.1471
4.14706
4.14704
3.87774
3.87771
3.87765
3.87758
3.87748
3.87739
3.87729
3.87721
3.87714
3.87709
3.87707
3.87707
3.8771
3.87714
3.8772
3.87727
3.87734
3.8774
3.87744
3.87747
4.81271
4.81234
4.81118
4.80932
4.80682
4.80376
4.80026
4.79644
4.7924
4.78819
4.78361
4.77845
4.77274
4.76667
4.76061
4.75491
4.74994
4.74597
4.74316
4.74152
4.49674
4.49682
4.49686
4.49686
4.49678
4.49653
4.49605
4.49531
4.49426
4.49292
4.49131
4.48945
4.48741
4.48525
4.48307
4.48099
4.47914
4.47762
4.47656
4.47596
4.22903
4.22894
4.22877
4.22849
4.22808
4.22753
4.22689
4.22619
4.22548
4.22477
4.22409
4.22344
4.22282
4.22223
4.22166
4.2211
4.2206
4.2202
4.21992
4.21979
4.26102
4.26108
4.26117
4.26127
4.26133
4.26132
4.26121
4.26101
4.26074
4.2604
4.26003
4.25964
4.25923
4.25881
4.25838
4.25794
4.25754
4.25719
4.25693
4.25681
3.57469
3.57448
3.57489
3.57594
3.57752
3.57958
3.58207
3.58492
3.58814
3.59181
3.59599
3.60074
3.60602
3.61173
3.6176
3.62329
3.6284
3.63262
3.63569
3.63777
4.11857
4.11855
4.11852
4.11848
4.1184
4.11831
4.11818
4.11804
4.11787
4.11768
4.11748
4.11727
4.11706
4.11684
4.11663
4.11643
4.11626
4.11612
4.11602
4.11596
3.82011
3.82009
3.82005
3.81998
3.8199
3.81981
3.81971
3.8196
3.8195
3.81939
3.81929
3.81919
3.81911
3.81903
3.81897
3.81892
3.81888
3.81885
3.81883
3.81882
3.86485
3.86483
3.8648
3.86475
3.86468
3.86461
3.86452
3.86444
3.86435
3.86426
3.86418
3.86411
3.86404
3.86399
3.86394
3.86391
3.86388
3.86386
3.86384
3.86384
3.92854
3.92852
3.92847
3.9284
3.92831
3.92823
3.92814
3.92807
3.92801
3.92798
3.92797
3.928
3.92804
3.92811
3.92818
3.92826
3.92834
3.9284
3.92845
3.92848
4.04289
4.0429
4.04292
4.04296
4.04301
4.04308
4.04317
4.04327
4.04338
4.0435
4.04365
4.0438
4.04397
4.04414
4.0443
4.04445
4.04457
4.04466
4.04472
4.04474
4.01918
4.01865
4.02066
4.02333
4.02589
4.02751
4.02758
4.02616
4.02397
4.02211
4.02174
4.02381
4.02855
4.03545
4.04331
4.05061
4.05631
4.0601
4.06217
4.06481
4.00836
4.00829
4.00817
4.00798
4.00775
4.00747
4.00717
4.00684
4.0065
4.00617
4.00584
4.00554
4.00526
4.00501
4.0048
4.00462
4.00447
4.00436
4.00429
4.00425
3.8764
3.87638
3.87635
3.87631
3.87626
3.8762
3.87614
3.87608
3.87602
3.87596
3.87592
3.87588
3.87586
3.87583
3.87582
3.87581
3.87581
3.87581
3.8758
3.8758
4.02187
4.02187
4.02189
4.02193
4.02202
4.02218
4.02242
4.02276
4.02322
4.02379
4.02448
4.02525
4.0261
4.02699
4.02785
4.02864
4.02932
4.02985
4.03023
4.03042
4.2117
4.21166
4.21155
4.21138
4.21113
4.2108
4.21038
4.20988
4.20934
4.20877
4.20817
4.20755
4.20693
4.2063
4.20569
4.20512
4.20462
4.20422
4.20393
4.20377
4.28605
4.28526
4.28466
4.28392
4.28298
4.28187
4.28065
4.27941
4.27826
4.27729
4.27663
4.27635
4.27649
4.27705
4.27793
4.27902
4.28013
4.28111
4.2819
4.28279
7.06156
7.06164
7.06151
7.06125
7.06088
7.06043
7.05994
7.05946
7.05904
7.05871
7.0585
7.05842
7.05845
7.05857
7.05873
7.05891
7.05905
7.05913
7.05914
7.059
0.16757
0.0493771
0.262086
0.114285
0.0337534
0.341567
0.271105
0.118124
0.213301
0.0425207
0.304703
0.207226
0.0549849
0.167706
0.35581
0.159331
0.313926
0.140735
0.299588
0.0685742
7.0857
7.08561
7.08547
7.08525
7.08496
7.08461
7.08423
7.08385
7.0835
7.08323
7.08303
7.08292
7.08289
7.0829
7.08295
7.08301
7.08305
7.08307
7.08309
7.08311
3.93049
3.93022
3.93046
3.93084
3.93116
3.93135
3.93142
3.9314
3.93132
3.93124
3.93118
3.93115
3.93111
3.93104
3.93088
3.93061
3.93022
3.9298
3.92953
3.92979
3.77169
3.77167
3.77165
3.77162
3.77158
3.77153
3.77148
3.77142
3.77136
3.77131
3.77125
3.7712
3.77116
3.77111
3.77108
3.77104
3.77102
3.771
3.77099
3.77098
6.44516
6.44072
6.43963
6.43951
6.43953
6.43949
6.43948
6.43959
6.43971
6.43967
6.43934
6.43871
6.43783
6.43679
6.43569
6.43465
6.43382
6.4335
6.43441
6.43883
5.81403
5.81444
5.81395
5.81364
5.81325
5.81264
5.81184
5.81094
5.81003
5.80917
5.80842
5.80778
5.80729
5.80691
5.80661
5.80629
5.80594
5.8057
5.80582
5.80522
6.13006
6.12841
6.12783
6.12776
6.1279
6.12809
6.12826
6.12834
6.12833
6.12821
6.12797
6.12761
6.12715
6.12661
6.12601
6.12542
6.12496
6.1248
6.12523
6.12681
6.05331
6.05141
6.05038
6.04995
6.04958
6.04901
6.04823
6.04731
6.04636
6.04547
6.04469
6.04405
6.04353
6.04308
6.04264
6.04213
6.0416
6.04135
6.04191
6.04357
9.02475
9.01163
9.00634
9.00883
9.02308
9.04389
9.05611
9.05476
9.04933
9.04802
9.05755
9.06826
9.0775
9.09009
9.09974
9.10627
9.10652
9.10282
9.10242
9.10992
3.76424
3.76421
3.76415
3.76406
3.76395
3.76382
3.76369
3.76354
3.7634
3.76326
3.76313
3.76302
3.76291
3.76282
3.76275
3.76269
3.76264
3.76261
3.76259
3.76258
7.04227
7.0423
7.04218
7.04192
7.04155
7.0411
7.04059
7.04005
7.03952
7.03903
7.0386
7.03824
7.03796
7.03774
7.03756
7.03741
7.03728
7.03715
7.03701
7.03684
5.99362
5.9927
5.99214
5.99193
5.99191
5.99191
5.99183
5.99165
5.99137
5.99102
5.99061
5.99016
5.98966
5.98912
5.98854
5.98797
5.98751
5.98735
5.98767
5.98845
6.1322
6.13076
6.13081
6.13118
6.13155
6.13179
6.13181
6.13159
6.13116
6.13054
6.12976
6.12884
6.12779
6.12663
6.12537
6.12406
6.1228
6.12177
6.12126
6.12249
7.11693
7.11687
7.11685
7.11681
7.11673
7.1166
7.11642
7.11619
7.11592
7.11564
7.11535
7.11507
7.11478
7.1145
7.11422
7.11394
7.11368
7.11346
7.1133
7.11326
4.64205
4.64067
4.63965
4.63773
4.63583
4.63491
4.63386
4.63295
4.63312
4.6338
4.63629
4.63914
4.64263
4.64739
4.65231
4.65737
4.66203
4.66523
4.66767
4.66881
7.1106
7.11055
7.11045
7.11029
7.11008
7.10984
7.10959
7.10932
7.10906
7.10881
7.10858
7.10837
7.1082
7.10806
7.10794
7.10785
7.10779
7.10775
7.10772
7.1077
6.85646
6.85558
6.85532
6.85518
6.85505
6.85491
6.85477
6.85461
6.85443
6.85416
6.8538
6.85336
6.85288
6.85241
6.85198
6.85161
6.85137
6.85129
6.85144
6.85228
5.80433
5.80393
5.80347
5.80302
5.80261
5.80224
5.80191
5.80157
5.8012
5.80077
5.8003
5.79979
5.79927
5.79877
5.79835
5.79806
5.79793
5.79797
5.79814
5.79841
5.72269
5.72259
5.72239
5.72211
5.72175
5.72134
5.72087
5.72036
5.71983
5.71928
5.71874
5.71821
5.71771
5.71725
5.71684
5.7165
5.71624
5.71604
5.71591
5.71585
7.00445
7.0043
7.00408
7.00379
7.00345
7.00305
7.00262
7.00216
7.00171
7.00127
7.00086
7.00051
7.00022
7
6.99985
6.99975
6.99971
6.9997
6.99972
6.99978
6.97781
6.97779
6.97775
6.97771
6.97766
6.9776
6.97754
6.9775
6.97746
6.97744
6.97743
6.97745
6.97747
6.97751
6.97755
6.9776
6.97764
6.97768
6.97771
6.97773
5.79291
5.79276
5.79247
5.79211
5.79172
5.7913
5.79081
5.79027
5.78966
5.78899
5.78827
5.78753
5.78678
5.78605
5.78538
5.78481
5.78437
5.78408
5.78393
5.78385
3.51178
3.53405
3.54295
3.54059
3.52492
3.50482
3.49344
3.49626
3.50561
3.50784
3.49971
3.48754
3.47574
3.46314
3.45213
3.44774
3.45071
3.45653
3.45789
3.4409
6.63978
6.63987
6.63986
6.63963
6.63921
6.63868
6.63807
6.63742
6.63677
6.63616
6.63561
6.63513
6.63472
6.63437
6.63407
6.6338
6.63355
6.63326
6.63292
6.63265
6.99759
6.99756
6.99752
6.99746
6.99739
6.99731
6.99722
6.99714
6.99707
6.99701
6.99698
6.99697
6.99698
6.997
6.99703
6.99707
6.9971
6.99713
6.99715
6.99716
7.02757
7.02755
7.02752
7.02747
7.02741
7.02734
7.02726
7.02718
7.0271
7.02701
7.02693
7.02686
7.02679
7.02673
7.02667
7.02662
7.02658
7.02655
7.02652
7.02651
6.7175
6.71686
6.71683
6.71691
6.71684
6.71666
6.71647
6.71626
6.71599
6.71555
6.71491
6.71434
6.71398
6.71367
6.71352
6.71337
6.71318
6.713
6.71302
6.71364
6.90315
6.90287
6.90258
6.90224
6.90188
6.90151
6.90115
6.90082
6.90052
6.90027
6.90008
6.89997
6.89992
6.89994
6.90001
6.90014
6.90031
6.90049
6.90069
6.90091
4.81766
4.81753
4.81728
4.81691
4.81643
4.81585
4.81517
4.81441
4.81358
4.81268
4.81173
4.81076
4.80978
4.80884
4.80796
4.80717
4.8065
4.80598
4.80562
4.80544
6.69724
6.69721
6.69714
6.69704
6.69692
6.69682
6.69678
6.69683
6.69698
6.69723
6.69754
6.69789
6.69825
6.69857
6.69882
6.69898
6.69904
6.69902
6.69895
6.6989
6.90093
6.9009
6.90084
6.90071
6.90048
6.90017
6.89979
6.89936
6.89893
6.89849
6.89804
6.89758
6.89709
6.89655
6.89595
6.89532
6.89469
6.89411
6.89367
6.89344
5.74525
5.74537
5.74563
5.74603
5.74659
5.74727
5.74801
5.74876
5.74942
5.74994
5.75027
5.75042
5.75043
5.75036
5.75027
5.75022
5.75021
5.75024
5.75029
5.75033
6.53502
6.53437
6.5334
6.5321
6.53056
6.52887
6.52714
6.52547
6.52398
6.5227
6.52169
6.52095
6.52049
6.52029
6.52035
6.52062
6.52105
6.52157
6.52209
6.52254
6.36221
6.3624
6.36275
6.36324
6.36383
6.36448
6.36514
6.36578
6.36638
6.3669
6.36735
6.36775
6.36811
6.36847
6.36884
6.3692
6.36955
6.36985
6.37008
6.37019
6.56063
6.56028
6.55886
6.55654
6.5538
6.55063
6.54759
6.54623
6.54671
6.54774
6.54815
6.54725
6.54505
6.54309
6.54266
6.54384
6.54521
6.54534
6.54443
6.54338
5.25612
5.25604
5.25588
5.25564
5.25534
5.25499
5.25458
5.25413
5.25364
5.25312
5.25259
5.25206
5.25153
5.25104
5.25058
5.25018
5.24985
5.24959
5.24942
5.24933
1.40742
1.40624
1.40401
1.401
1.39752
1.39393
1.39052
1.38759
1.38535
1.38397
1.38354
1.38412
1.38564
1.38802
1.39101
1.39436
1.39769
1.40064
1.40283
1.40401
3.47205
3.47202
3.47205
3.47209
3.47213
3.47218
3.47223
3.47229
3.47234
3.4724
3.47245
3.47251
3.47256
3.47261
3.47265
3.47268
3.47269
3.4727
3.4727
3.47275
5.90478
5.90478
5.90485
5.90509
5.90561
5.90648
5.90775
5.90937
5.91129
5.9134
5.9156
5.91782
5.92001
5.92212
5.92413
5.92601
5.92769
5.92908
5.93009
5.93062
0.669633
0.669111
0.667998
0.666453
0.664608
0.662618
0.66066
0.658915
0.657532
0.65663
0.656264
0.656446
0.657135
0.658243
0.659644
0.661186
0.662696
0.664016
0.665
0.665471
6.26169
6.26178
6.26197
6.26224
6.2626
6.26303
6.26351
6.26401
6.26453
6.26503
6.26552
6.26598
6.26642
6.26683
6.26723
6.26759
6.26793
6.2682
6.26841
6.26852
5.65103
5.65111
5.65125
5.65146
5.65172
5.65201
5.65229
5.65256
5.65278
5.65294
5.65302
5.65304
5.65299
5.6529
5.65277
5.65264
5.65251
5.6524
5.65233
5.65229
3.23873
3.23869
3.23872
3.23877
3.23882
3.23887
3.23893
3.239
3.23907
3.23915
3.23925
3.23934
3.23945
3.23955
3.23964
3.23971
3.23977
3.23981
3.23983
3.23989
4.42452
4.42451
4.42453
4.42456
4.4246
4.42464
4.4247
4.42476
4.42482
4.42488
4.42494
4.425
4.42505
4.42511
4.42515
4.42519
4.42522
4.42525
4.42527
4.4253
3.01278
3.01267
3.01262
3.01255
3.01247
3.01239
3.01233
3.0123
3.01231
3.01237
3.01248
3.01264
3.01285
3.01311
3.01338
3.01366
3.01392
3.01414
3.01429
3.01446
6.03706
6.0373
6.03779
6.03855
6.03959
6.04092
6.0425
6.04428
6.04621
6.04818
6.05013
6.05199
6.05371
6.05527
6.05667
6.0579
6.05894
6.05976
6.06034
6.06064
3.40591
3.40571
3.40531
3.40477
3.40414
3.40347
3.4028
3.40217
3.40159
3.40108
3.40065
3.40032
3.40011
3.40002
3.40007
3.40023
3.40048
3.40075
3.40097
3.4011
3.67198
3.67198
3.67199
3.67201
3.67204
3.67207
3.6721
3.67214
3.67218
3.67222
3.67226
3.6723
3.67234
3.67237
3.67239
3.67242
3.67244
3.67245
3.67246
3.67247
4.00129
4.0013
4.00134
4.00138
4.00144
4.0015
4.00155
4.00158
4.00159
4.00156
4.0015
4.00139
4.00125
4.00109
4.00091
4.00073
4.00057
4.00043
4.00034
4.00029
2.95929
2.95916
2.95897
2.95869
2.95833
2.95795
2.95757
2.95723
2.95698
2.95684
2.95683
2.95695
2.95719
2.95753
2.95794
2.95836
2.95877
2.95912
2.95937
2.95954
2.26438
2.26388
2.26297
2.26176
2.26038
2.259
2.25777
2.25682
2.25625
2.25614
2.25652
2.25739
2.25868
2.26031
2.26215
2.26406
2.26586
2.26741
2.26854
2.26914
4.63945
4.63921
4.63917
4.63916
4.63916
4.63916
4.63917
4.63917
4.63917
4.63917
4.63917
4.63917
4.63916
4.63916
4.63916
4.63916
4.63917
4.63918
4.63921
4.63946
1.38035
1.38029
1.38016
1.37994
1.37964
1.37925
1.37877
1.37822
1.37761
1.37694
1.37622
1.37546
1.3747
1.37397
1.37329
1.3727
1.37221
1.37184
1.3716
1.37147
1.62255
1.62156
1.61973
1.61717
1.61416
1.6111
1.6082
1.6057
1.60377
1.60253
1.60206
1.60241
1.60355
1.6054
1.6078
1.61049
1.61319
1.61558
1.61737
1.61838
1.32869
1.32842
1.32783
1.32701
1.32605
1.32502
1.324
1.32309
1.32237
1.32191
1.32175
1.32189
1.32232
1.32297
1.32379
1.32466
1.32549
1.32621
1.32672
1.32695
0.643297
0.642815
0.641784
0.640368
0.638678
0.636877
0.635141
0.633643
0.632557
0.631994
0.632032
0.632684
0.633873
0.635494
0.637357
0.639286
0.641092
0.642605
0.643703
0.64422
2.35114
2.35083
2.35022
2.34935
2.34834
2.34732
2.34641
2.34574
2.3454
2.34544
2.34587
2.3467
2.34786
2.34928
2.35085
2.35243
2.35387
2.35506
2.35589
2.35631
2.99911
2.99901
2.99882
2.99857
2.99825
2.99792
2.99759
2.99729
2.99706
2.99689
2.99682
2.99683
2.99692
2.99708
2.9973
2.99755
2.9978
2.99803
2.9982
2.9983
1.0902
1.08948
1.08818
1.08646
1.08452
1.08254
1.08071
1.07919
1.07812
1.07759
1.07766
1.07831
1.07944
1.08091
1.08261
1.08437
1.08607
1.08754
1.08866
1.08927
5.82136
5.82121
5.82096
5.82072
5.82057
5.8206
5.82084
5.82128
5.82188
5.82259
5.82338
5.82425
5.82521
5.82628
5.82748
5.82875
5.83002
5.83115
5.83201
5.83248
4.47369
4.47366
4.47361
4.47355
4.4735
4.47345
4.47339
4.47331
4.47317
4.47297
4.47268
4.47231
4.47188
4.47142
4.47096
4.47055
4.47021
4.46996
4.4698
4.46972
2.99982
2.99961
2.99946
2.99923
2.99894
2.99862
2.99829
2.99798
2.99772
2.99753
2.9974
2.99735
2.99736
2.99742
2.99751
2.99761
2.99769
2.99775
2.99777
2.99791
5.09157
5.09144
5.09117
5.09078
5.09028
5.08967
5.08897
5.0882
5.08736
5.08647
5.08555
5.08462
5.0837
5.08282
5.08201
5.08129
5.08068
5.08021
5.07989
5.07973
6.59688
6.59691
6.59698
6.59708
6.59723
6.59744
6.5977
6.59801
6.59835
6.59872
6.59911
6.59949
6.59985
6.6002
6.60051
6.60079
6.60103
6.60122
6.60135
6.60141
5.44571
5.44562
5.44545
5.44521
5.44491
5.44456
5.44415
5.4437
5.44319
5.44262
5.44199
5.44133
5.44066
5.44001
5.43941
5.43889
5.43847
5.43815
5.43793
5.43783
4.61526
4.6152
4.6152
4.6152
4.61522
4.61523
4.61525
4.61528
4.6153
4.61532
4.61535
4.61537
4.61539
4.61541
4.61543
4.61544
4.61545
4.61547
4.61548
4.61555
4.46543
4.46506
4.46498
4.46487
4.46474
4.46458
4.46442
4.46427
4.46413
4.46399
4.46383
4.46367
4.46353
4.46342
4.46333
4.46326
4.46319
4.46313
4.4631
4.46341
3.07918
3.07908
3.07902
3.07893
3.07882
3.0787
3.07858
3.07848
3.07841
3.07838
3.07839
3.07846
3.07856
3.07871
3.07888
3.07906
3.07924
3.0794
3.07951
3.07966
4.62207
4.62186
4.62185
4.62185
4.62186
4.62187
4.62188
4.6219
4.62191
4.62191
4.6219
4.62187
4.62185
4.62183
4.62182
4.62181
4.6218
4.62179
4.6218
4.62202
7.02368
7.0234
7.02298
7.02238
7.02162
7.02075
7.0198
7.01882
7.01786
7.01696
7.01617
7.0155
7.01498
7.01458
7.0143
7.01412
7.01401
7.01396
7.01395
7.01401
4.41043
4.40994
4.40993
4.40992
4.40986
4.40978
4.40969
4.40958
4.40946
4.40933
4.4092
4.40906
4.40891
4.40876
4.40864
4.40856
4.40855
4.40858
4.40864
4.40917
6.98377
6.98368
6.98355
6.9833
6.98289
6.98226
6.9814
6.98032
6.97909
6.97779
6.97652
6.97535
6.97431
6.97341
6.97265
6.97204
6.97156
6.97121
6.97101
6.97097
2.073
2.07242
2.07137
2.06992
2.0682
2.0664
2.06468
2.06319
2.06206
2.06137
2.06118
2.06149
2.06227
2.06345
2.0649
2.06647
2.068
2.06932
2.07029
2.07082
5.31407
5.31573
5.31919
5.32339
5.32689
5.32791
5.32461
5.31533
5.29897
5.27522
5.2446
5.20846
5.16878
5.12791
5.08835
5.05238
5.02187
4.99815
4.98212
4.97411
5.9553
5.95375
5.96269
5.97018
5.97713
5.98302
5.98755
5.99092
5.99349
5.99512
5.99538
5.99418
5.99192
5.98916
5.98594
5.9818
5.97607
5.96835
5.95775
5.95749
5.10468
5.11493
5.13455
5.16216
5.19577
5.23339
5.27344
5.31489
5.35733
5.40077
5.44539
5.49127
5.53809
5.5851
5.63104
5.67415
5.71239
5.74356
5.76563
5.77724
5.35511
5.35598
5.35803
5.36027
5.36167
5.36125
5.35816
5.35179
5.34181
5.32826
5.31141
5.29181
5.2702
5.24748
5.22468
5.20292
5.18344
5.16747
5.15623
5.15064
2.87354
2.87353
2.87352
2.87349
2.87346
2.87342
2.87337
2.87333
2.87328
2.87324
2.8732
2.87316
2.87314
2.87312
2.8731
2.87309
2.87309
2.87309
2.87309
2.87309
2.05958
2.05941
2.0591
2.05867
2.05816
2.05761
2.05708
2.05661
2.05624
2.05601
2.05592
2.05597
2.05616
2.05645
2.05681
2.05719
2.05757
2.05789
2.05812
2.05825
2.37501
2.37468
2.37451
2.37429
2.37404
2.37379
2.37358
2.37343
2.37338
2.37342
2.37357
2.37383
2.37418
2.37459
2.37505
2.37551
2.37593
2.37628
2.37654
2.37692
2.56356
2.56355
2.56352
2.5635
2.56347
2.56343
2.56341
2.5634
2.56341
2.56345
2.56351
2.5636
2.56372
2.56385
2.56399
2.56413
2.56426
2.56437
2.56446
2.56451
5.0963
5.09576
5.09533
5.09482
5.09423
5.09362
5.09306
5.09261
5.09231
5.09218
5.09221
5.09238
5.09265
5.09298
5.09332
5.09365
5.09395
5.0942
5.09441
5.09485
6.17927
6.13954
6.14168
6.19095
6.27427
6.33684
6.35245
6.30567
6.1747
5.94495
5.62352
5.27667
5.01283
4.89276
4.87466
4.93029
5.08483
5.37294
5.71344
5.96742
4.68972
4.70024
4.72208
4.75483
4.7977
4.84951
4.90834
4.97195
5.03816
5.10524
5.17194
5.23712
5.29934
5.35651
5.40624
5.44652
5.47642
5.49635
5.50787
5.51353
6.50041
6.49983
6.49854
6.49665
6.49436
6.49182
6.48924
6.48691
6.48491
6.48317
6.48157
6.48001
6.47846
6.47709
6.47601
6.47517
6.47434
6.47337
6.4724
6.47167
6.71219
6.71224
6.71238