/*--------------------------------*- C++ -*----------------------------------*\
| =========                 |                                                 |
| \\      /  F ield         | OpenFOAM: The Open Source CFD Toolbox           |
|  \\    /   O peration     | Version:  4.1                                   |
|   \\  /    A nd           | Web:      www.OpenFOAM.org                      |
|    \\/     M anipulation  |                                                 |
\*---------------------------------------------------------------------------*/
FoamFile
{
    version     2.0;
    format      ascii;
    class       volScalarField;
    location    "0.019";
    object      muEff;
}
// * * * * * * * * * * * * * * * * * * * * * * * * * * * * * * * * * * * * * //

dimensions      [1 -1 -1 0 0 0 0];

internalField   nonuniform List<scalar> 
278640
(
0.0458677
0.0515985
0.0480421
0.0478133
0.0477098
0.0476884
0.0477265
0.0477944
0.0478611
0.0479016
0.0479013
0.0478609
0.0477943
0.0477265
0.0476881
0.0477095
0.0478128
0.0480417
0.0515981
0.0458674
0.0559116
0.0638887
0.0589978
0.0587009
0.0585635
0.0585322
0.0585793
0.0586648
0.0587496
0.0588009
0.0588009
0.0587496
0.0586648
0.0585793
0.0585322
0.0585635
0.0587009
0.0589978
0.0638887
0.0559117
0.0185411
0.0210989
0.0193867
0.0193853
0.0195602
0.0198706
0.0202832
0.0208009
0.0211866
0.0213587
0.0213508
0.0213909
0.0214935
0.021618
0.0217452
0.0217567
0.0216616
0.0215904
0.0232742
0.0202707
0.0587766
0.0667937
0.0618051
0.0614661
0.0613094
0.0612739
0.0613281
0.061428
0.0615266
0.0615865
0.0615865
0.0615266
0.0614279
0.061328
0.0612739
0.0613094
0.061466
0.0618051
0.0667937
0.0587765
0.0776984
0.0880793
0.081764
0.0814597
0.0814556
0.0815776
0.0817215
0.0818178
0.0817988
0.0816398
0.081387
0.0811246
0.0810058
0.0811484
0.0816103
0.0823547
0.0832959
0.0844537
0.0916282
0.0811738
0.040525
0.0459849
0.04267
0.0425314
0.0425017
0.0425356
0.0426109
0.0427
0.0427758
0.0428179
0.0428145
0.042766
0.0426841
0.0425903
0.0425123
0.0424778
0.0425085
0.0426487
0.0459634
0.0405056
0.0454037
0.0517896
0.0478972
0.0476668
0.0475786
0.0475756
0.0476336
0.0477195
0.0478006
0.0478493
0.0478501
0.0478023
0.0477218
0.0476358
0.0475773
0.0475801
0.0476684
0.0478989
0.0517922
0.045405
0.0440002
0.0505214
0.0465013
0.0462977
0.0462826
0.046371
0.0465263
0.0467027
0.0468542
0.0469428
0.0469461
0.0468639
0.0467179
0.0465467
0.0463971
0.0463157
0.0463396
0.0465521
0.0505793
0.0440619
0.0813414
0.0914528
0.0851433
0.0846428
0.0844327
0.0844006
0.0845004
0.0846671
0.0848295
0.0849272
0.0849272
0.0848294
0.0846671
0.0845004
0.0844006
0.0844327
0.0846428
0.0851433
0.0914527
0.0813414
0.0766045
0.0864876
0.0800699
0.0795161
0.0793083
0.0793161
0.0794807
0.0797187
0.0799428
0.0800773
0.0800773
0.0799428
0.0797187
0.07948
0.079316
0.0793083
0.079516
0.0800699
0.0864876
0.0766045
0.0466208
0.0528229
0.0490182
0.0488024
0.0487297
0.0487493
0.0488351
0.0489499
0.0490546
0.0491164
0.0491167
0.0490555
0.0489513
0.0488369
0.0487515
0.048732
0.0488048
0.0490205
0.0528252
0.0466224
0.035581
0.0406882
0.0375861
0.0375222
0.0375747
0.0376812
0.0378073
0.0379235
0.0380086
0.0380518
0.038049
0.038007
0.0379433
0.0378864
0.0378685
0.0379189
0.0380512
0.0382908
0.0415598
0.0364414
0.0428228
0.0492856
0.0452613
0.0450942
0.0450984
0.0452003
0.0453626
0.0455425
0.0456991
0.0458
0.0458263
0.0457761
0.0456644
0.0455204
0.0453826
0.0452938
0.0452924
0.0454561
0.0494897
0.0429971
0.0504937
0.0578784
0.053184
0.0528677
0.0527711
0.0528191
0.0529696
0.0531642
0.0533403
0.0534435
0.0534423
0.0533365
0.0531577
0.0529606
0.0528078
0.0527582
0.0528529
0.0531681
0.05786
0.0504776
0.0482552
0.0551926
0.0506998
0.0504682
0.0504602
0.0505861
0.0507972
0.0510302
0.0512259
0.0513384
0.0513403
0.0512306
0.0510346
0.0507966
0.0505762
0.0504402
0.0504408
0.0506697
0.0551612
0.0482293
0.047917
0.0545043
0.0504749
0.0502233
0.0501259
0.0501199
0.0501802
0.0502723
0.0503598
0.0504121
0.0504121
0.0503598
0.0502727
0.0501803
0.0501199
0.0501259
0.0502234
0.0504749
0.0545043
0.0479173
0.0636885
0.0727539
0.066932
0.066515
0.0663979
0.0664719
0.0666826
0.0669519
0.0671958
0.0673392
0.0673392
0.0671958
0.0669519
0.0666826
0.0664718
0.0663979
0.066515
0.066932
0.0727539
0.0636885
0.0505739
0.0590078
0.0541116
0.0539773
0.0539656
0.0540404
0.0542301
0.0545176
0.0547931
0.0549856
0.0550369
0.0549724
0.0547598
0.0543643
0.0537762
0.0530761
0.052391
0.0519423
0.0563506
0.0480783
0.0459009
0.052905
0.0486085
0.0484147
0.0484145
0.0485199
0.0486873
0.0488663
0.0490095
0.0490804
0.049059
0.0489455
0.0487607
0.0485439
0.0483437
0.0482095
0.0481814
0.0483472
0.0526068
0.0456152
0.0664873
0.0760661
0.069999
0.0695877
0.0694737
0.0695417
0.0697386
0.0699899
0.0702167
0.07035
0.07035
0.0702166
0.0699899
0.0697386
0.0695416
0.0694737
0.0695877
0.069999
0.0760661
0.0664872
0.0542722
0.0618616
0.0567971
0.0563952
0.0563048
0.0564127
0.056661
0.0569699
0.0572479
0.0574124
0.0574124
0.057248
0.05697
0.0566612
0.0564125
0.0563047
0.0563955
0.0567974
0.061862
0.0542722
0.054961
0.0634927
0.0581028
0.0577456
0.0576352
0.057684
0.0578474
0.0580612
0.0582551
0.0583698
0.0583698
0.0582551
0.0580612
0.0578475
0.057684
0.0576352
0.0577456
0.0581029
0.0634928
0.054961
0.0503718
0.0582935
0.0532255
0.052917
0.0528563
0.0529473
0.0531429
0.0533797
0.0535889
0.0537116
0.0537119
0.0535896
0.0533805
0.0531439
0.0529485
0.0528575
0.0529181
0.0532267
0.0582947
0.050373
0.0512445
0.0597383
0.05435
0.0540218
0.0539653
0.0540652
0.0542734
0.0545232
0.0547433
0.054872
0.054872
0.0547433
0.0545232
0.0542734
0.0540651
0.0539652
0.0540217
0.0543503
0.0597383
0.0512444
0.0449184
0.0525894
0.0477
0.0474805
0.0474823
0.0476059
0.0478045
0.0480221
0.0482031
0.0483012
0.0482892
0.0481672
0.0479628
0.0477233
0.0475072
0.0473728
0.047368
0.0475896
0.052474
0.0448216
0.0964467
0.110315
0.101036
0.100128
0.0998925
0.100053
0.100502
0.101086
0.101623
0.101944
0.101944
0.101623
0.101086
0.100501
0.100052
0.0998924
0.100128
0.101036
0.110315
0.0964467
0.0588847
0.0681672
0.0622656
0.061976
0.061984
0.0621328
0.0623859
0.0626903
0.0629554
0.0631269
0.0631668
0.0630706
0.0628138
0.0623943
0.0618557
0.0612977
0.060831
0.0606691
0.0660956
0.0567943
0.0553711
0.0621538
0.0578005
0.0575377
0.0574976
0.057554
0.0577065
0.0579435
0.0582228
0.0584545
0.0585386
0.0584385
0.0582052
0.0579134
0.0576224
0.057393
0.0572751
0.0573868
0.0615949
0.0547781
0.0778378
0.0895447
0.0820928
0.0814636
0.0812747
0.0813468
0.0816105
0.0819618
0.082286
0.0824793
0.0824793
0.082286
0.0819618
0.0816104
0.0813468
0.0812747
0.0814636
0.0820928
0.0895446
0.0778378
0.0656081
0.0754717
0.0689066
0.0683818
0.0682803
0.068446
0.0688049
0.0692481
0.0696488
0.0698862
0.0698862
0.0696488
0.0692481
0.0688048
0.068446
0.0682803
0.0683818
0.0689066
0.0754717
0.0656081
0.0462158
0.0533121
0.048605
0.0483545
0.0483711
0.0485503
0.0488339
0.0491487
0.0494172
0.0495711
0.0495688
0.0494101
0.0491354
0.048813
0.0485205
0.0483317
0.0483054
0.048547
0.0532423
0.0461529
0.044316
0.050903
0.0467809
0.0465827
0.0465777
0.0466881
0.0468755
0.0470903
0.0472804
0.0474013
0.0474248
0.0473486
0.0471949
0.0470061
0.0468347
0.0467322
0.0467397
0.0469385
0.0510761
0.0444621
0.0420468
0.0484749
0.0440876
0.0437706
0.0436516
0.0436625
0.0438248
0.0440828
0.0443868
0.0447185
0.0450755
0.0454822
0.0458333
0.046056
0.0461303
0.0461689
0.046272
0.0465826
0.0511709
0.0443125
0.0512614
0.0593234
0.0542306
0.0539076
0.0538325
0.0539134
0.0541064
0.0543459
0.0545605
0.0546871
0.0546871
0.0545606
0.0543459
0.0541064
0.0539134
0.0538326
0.0539081
0.0542307
0.0593236
0.0512615
0.0574669
0.0655103
0.0599003
0.0593858
0.0593011
0.0594968
0.0598975
0.0603918
0.0608424
0.0611119
0.0611119
0.0608421
0.0603916
0.059897
0.0594964
0.0593008
0.0593856
0.0599001
0.0655102
0.0574664
0.0560682
0.0646073
0.0588019
0.05829
0.0581715
0.0583084
0.0586332
0.0590452
0.0594219
0.059647
0.0596463
0.0594204
0.0590426
0.0586299
0.0583044
0.0581668
0.0582846
0.0587961
0.0646006
0.0560624
0.0487477
0.0571479
0.0517464
0.0514064
0.0513681
0.0515025
0.0517548
0.0520502
0.0523075
0.0524542
0.0524477
0.0522882
0.0520192
0.0517131
0.0514509
0.0513074
0.0513374
0.0516699
0.0570593
0.0486688
0.110573
0.125036
0.114359
0.113083
0.112886
0.11335
0.114312
0.115519
0.116638
0.117316
0.117316
0.116638
0.115519
0.114312
0.11335
0.112886
0.113083
0.114359
0.125036
0.110573
0.0870527
0.0961538
0.0891036
0.0879231
0.0876078
0.087843
0.08851
0.0894241
0.0903226
0.0909112
0.0909831
0.0905354
0.0897701
0.0889788
0.0884248
0.0882944
0.0887081
0.0899819
0.0971534
0.0879993
0.320629
0.319494
0.320525
0.320721
0.320419
0.319848
0.319177
0.318544
0.318052
0.317771
0.317734
0.317943
0.318361
0.318924
0.319528
0.320038
0.320284
0.320046
0.318984
0.320108
0.372622
0.365246
0.367895
0.368803
0.369213
0.36938
0.369409
0.369365
0.369294
0.369231
0.369196
0.369186
0.369189
0.369171
0.369084
0.368866
0.368412
0.367473
0.36481
0.372141
0.478532
0.471456
0.472831
0.472141
0.470667
0.469009
0.467564
0.466529
0.465926
0.465672
0.465684
0.465963
0.466587
0.467642
0.469104
0.470778
0.472262
0.472962
0.471593
0.478681
0.240093
0.234839
0.236415
0.236007
0.235051
0.234051
0.233214
0.232618
0.232257
0.232089
0.232079
0.232229
0.232574
0.233154
0.233977
0.234967
0.235913
0.236314
0.234737
0.239982
0.126823
0.140545
0.131476
0.130105
0.129372
0.129023
0.12901
0.12923
0.129545
0.129814
0.129931
0.129864
0.129666
0.129462
0.129407
0.129642
0.130251
0.131514
0.140547
0.126707
0.169933
0.170322
0.166301
0.162244
0.158872
0.156448
0.154949
0.154182
0.153868
0.153726
0.153581
0.153431
0.153446
0.153904
0.155091
0.157209
0.160296
0.164114
0.167959
0.16752
0.140279
0.139719
0.139145
0.138298
0.137512
0.136943
0.136634
0.136548
0.136594
0.136674
0.136726
0.136749
0.136809
0.137005
0.137428
0.138111
0.139007
0.139952
0.140598
0.141204
0.108363
0.165104
0.151776
0.141965
0.13542
0.131244
0.128763
0.127438
0.126833
0.126625
0.126657
0.126951
0.127702
0.129258
0.132065
0.136642
0.14362
0.153825
0.167408
0.110903
0.335552
0.333469
0.332528
0.33083
0.328996
0.327427
0.326333
0.325738
0.325519
0.325497
0.325538
0.325639
0.325932
0.326597
0.327755
0.329382
0.331265
0.333003
0.333966
0.336081
0.317368
0.313633
0.315234
0.315919
0.316297
0.316535
0.316705
0.316845
0.316972
0.317098
0.317224
0.317347
0.317459
0.317544
0.317578
0.317517
0.317285
0.316714
0.315173
0.319041
0.222601
0.223008
0.223236
0.22331
0.223252
0.223123
0.222975
0.222842
0.22275
0.222711
0.222733
0.222814
0.222947
0.22312
0.223304
0.223464
0.223549
0.223495
0.22328
0.222881
0.114909
0.107625
0.108605
0.104553
0.100458
0.0978195
0.0968137
0.09705
0.0978777
0.0985893
0.0986942
0.0981855
0.0975445
0.0974806
0.0986543
0.101463
0.105724
0.109916
0.109015
0.116365
0.118894
0.133652
0.123358
0.121927
0.121509
0.121719
0.1224
0.123312
0.124169
0.124703
0.124747
0.124296
0.12351
0.122651
0.121999
0.121797
0.122208
0.123635
0.133997
0.119116
0.0839611
0.0920219
0.0847684
0.0835683
0.0834909
0.0841733
0.0854497
0.087062
0.0885991
0.0895431
0.0895005
0.0884743
0.0868659
0.0852037
0.0839078
0.0832387
0.0833576
0.0846132
0.0919354
0.0838741
0.279589
0.276347
0.275474
0.272904
0.26981
0.267063
0.265124
0.264073
0.263699
0.263651
0.263668
0.263748
0.264152
0.26523
0.267196
0.269973
0.273102
0.275707
0.276605
0.279891
0.114677
0.114248
0.114401
0.114049
0.113553
0.113084
0.112718
0.112476
0.112345
0.112296
0.112309
0.112386
0.112547
0.112822
0.113223
0.113728
0.114259
0.114642
0.114511
0.114946
0.429451
0.429915
0.430419
0.430915
0.431349
0.431739
0.432083
0.432372
0.432595
0.432751
0.432839
0.432846
0.432706
0.432429
0.432111
0.431764
0.43137
0.43092
0.43042
0.430027
0.234267
0.233267
0.233289
0.232807
0.232156
0.231536
0.231055
0.230741
0.230575
0.230512
0.230518
0.230592
0.230769
0.231091
0.23158
0.232203
0.232855
0.233335
0.233309
0.234312
0.363357
0.361022
0.361491
0.360818
0.359546
0.358109
0.356807
0.355808
0.355161
0.354844
0.354826
0.35511
0.355726
0.356696
0.357971
0.359386
0.360636
0.361292
0.360814
0.363128
0.246722
0.245171
0.245514
0.245114
0.244476
0.243898
0.243506
0.243312
0.243257
0.24326
0.243265
0.243272
0.243335
0.243537
0.243935
0.244515
0.245152
0.245549
0.245203
0.246752
0.136251
0.163896
0.155953
0.149572
0.144931
0.141794
0.139881
0.13889
0.138508
0.138458
0.138584
0.138878
0.139487
0.140685
0.142786
0.146099
0.15091
0.157456
0.165544
0.137738
0.416233
0.415743
0.417159
0.418002
0.418392
0.418473
0.418359
0.418152
0.417944
0.417804
0.417771
0.417846
0.417993
0.418143
0.418208
0.418085
0.417658
0.416787
0.415348
0.415848
0.127777
0.127927
0.127669
0.127222
0.126735
0.126331
0.126059
0.125909
0.125837
0.125786
0.12572
0.125641
0.125588
0.12562
0.125785
0.126096
0.126504
0.126891
0.127106
0.126938
0.45389
0.445815
0.447353
0.446586
0.444892
0.443003
0.441388
0.440256
0.439603
0.439311
0.439272
0.439489
0.440078
0.441163
0.442743
0.444604
0.446275
0.447031
0.445491
0.453529
0.340656
0.329196
0.33178
0.331634
0.330647
0.329482
0.328506
0.327858
0.327511
0.327355
0.3273
0.327346
0.327594
0.328155
0.329062
0.330172
0.331114
0.331242
0.328662
0.340091
0.273042
0.267646
0.269081
0.2687
0.267674
0.266573
0.26566
0.265028
0.26466
0.264488
0.264458
0.264572
0.264883
0.265464
0.266332
0.267394
0.268389
0.26875
0.267304
0.272685
0.332053
0.329292
0.330463
0.330897
0.330987
0.330921
0.330801
0.330691
0.330629
0.330634
0.330713
0.330862
0.331072
0.331316
0.331554
0.331723
0.331714
0.331344
0.330207
0.333048
0.3729
0.371381
0.372751
0.373521
0.373932
0.374132
0.374201
0.374201
0.374176
0.374162
0.374179
0.374224
0.374268
0.374278
0.374218
0.374029
0.373624
0.372863
0.371498
0.373026
0.961143
0.926025
0.842554
0.781657
0.753559
0.761467
0.804289
0.874955
0.955745
1.01631
1.01544
0.953642
0.872731
0.802358
0.759664
0.751613
0.779365
0.839588
0.921948
0.955969
0.355447
0.349371
0.338756
0.328938
0.321624
0.317293
0.315742
0.316319
0.317943
0.319265
0.319263
0.317918
0.31623
0.315564
0.317024
0.321274
0.328511
0.338249
0.34877
0.354835
0.727449
0.615068
0.5292
0.473443
0.453886
0.470256
0.518995
0.589808
0.661886
0.708356
0.707595
0.659429
0.586019
0.514777
0.46596
0.449284
0.468231
0.523552
0.609809
0.723062
0.50069
0.495176
0.495819
0.495365
0.49455
0.49376
0.493205
0.492939
0.492888
0.492919
0.492938
0.492943
0.49303
0.493325
0.493903
0.494709
0.495528
0.495999
0.495369
0.500932
0.0612516
0.0602295
0.0607151
0.060572
0.0603543
0.0601749
0.0600571
0.0599884
0.0599406
0.0598842
0.0598019
0.0596953
0.0595848
0.0595014
0.0594715
0.0595049
0.0595799
0.0595941
0.0590131
0.0599677
0.448541
0.446517
0.447764
0.448521
0.448944
0.449137
0.449171
0.44911
0.449009
0.448913
0.448847
0.448813
0.44879
0.448736
0.448595
0.448308
0.447801
0.44698
0.44568
0.447689
0.0486353
0.0552244
0.051295
0.0510469
0.0509497
0.0509193
0.0509501
0.0510225
0.0510996
0.0511419
0.0511266
0.0510608
0.0509827
0.0509403
0.050975
0.0511228
0.0513978
0.0518594
0.0559943
0.0494795
0.442347
0.436665
0.438504
0.43925
0.439558
0.439641
0.439606
0.439515
0.439406
0.439307
0.439229
0.439171
0.439126
0.439072
0.438972
0.438768
0.438357
0.437545
0.435664
0.441366
0.0607319
0.0585481
0.0594974
0.058894
0.0583374
0.0580663
0.0580526
0.0581963
0.058371
0.0584614
0.0584005
0.0581928
0.0579094
0.0576594
0.0575564
0.0576923
0.0580939
0.0585377
0.0574671
0.0595204
0.49218
0.486693
0.487159
0.486087
0.484335
0.482475
0.480881
0.479734
0.479049
0.478747
0.478758
0.479079
0.479782
0.480947
0.482557
0.484431
0.486186
0.487271
0.486805
0.492321
0.154549
0.178921
0.160338
0.156792
0.15567
0.1557
0.156543
0.157855
0.159199
0.160085
0.160156
0.159389
0.158095
0.156738
0.155749
0.155486
0.156325
0.159567
0.177805
0.153462
0.302944
0.302062
0.302497
0.302388
0.301982
0.301465
0.30096
0.300543
0.300255
0.300107
0.300104
0.300247
0.300537
0.300954
0.301462
0.301982
0.302393
0.302507
0.302073
0.302961
0.346103
0.345722
0.345835
0.345355
0.344495
0.343512
0.342595
0.341861
0.341361
0.341104
0.341089
0.34132
0.341801
0.342519
0.34342
0.344388
0.345237
0.345709
0.345583
0.345971
0.65759
0.680886
0.647101
0.621617
0.615513
0.635926
0.688257
0.7748
0.888688
1.00136
0.997887
0.885045
0.772307
0.686818
0.635174
0.615178
0.621604
0.647075
0.680671
0.657425
0.290007
0.289881
0.290197
0.290144
0.289815
0.289352
0.288866
0.288439
0.288122
0.287942
0.287912
0.28803
0.288284
0.28865
0.289083
0.289504
0.289797
0.289826
0.289491
0.289613
0.189799
0.183631
0.181661
0.17989
0.179644
0.182175
0.187968
0.197154
0.209714
0.22368
0.22347
0.209162
0.196321
0.186896
0.180905
0.178218
0.178352
0.180046
0.181968
0.188399
0.212476
0.209679
0.209608
0.208278
0.206693
0.205448
0.204745
0.204531
0.204595
0.204684
0.204623
0.204412
0.204229
0.204331
0.204931
0.206085
0.207595
0.208864
0.208891
0.211659
0.92699
0.946777
0.882424
0.83375
0.813463
0.828081
0.86875
0.906077
0.925695
0.938916
0.938428
0.92462
0.905113
0.869082
0.830069
0.816825
0.838457
0.887726
0.951089
0.928725
0.238408
0.236492
0.23434
0.231502
0.228988
0.227369
0.226762
0.226966
0.22755
0.227998
0.227952
0.22741
0.226735
0.226437
0.226949
0.228474
0.230896
0.233654
0.235741
0.237625
0.0432102
0.0490898
0.0463568
0.0460028
0.0462695
0.0467735
0.0475044
0.0483623
0.0491547
0.0496653
0.0497476
0.0493956
0.0487478
0.0480186
0.0474025
0.0469996
0.0468201
0.0472559
0.0500794
0.0441168
0.534047
0.527813
0.52352
0.518004
0.512895
0.509201
0.507254
0.506851
0.507352
0.507945
0.508055
0.507683
0.507402
0.508011
0.510152
0.51404
0.519326
0.525021
0.529392
0.535745
0.502117
0.496052
0.498355
0.499328
0.499485
0.499175
0.498627
0.49802
0.497499
0.49716
0.497061
0.497201
0.497534
0.49796
0.498345
0.498506
0.498203
0.497152
0.494813
0.500916
0.422047
0.419408
0.420237
0.420438
0.420212
0.419785
0.419299
0.418863
0.418548
0.418398
0.418431
0.418645
0.419024
0.41952
0.420064
0.420543
0.420803
0.420643
0.419834
0.422538
0.680223
0.669324
0.667163
0.662483
0.657155
0.652462
0.649149
0.647361
0.646716
0.646596
0.64654
0.646562
0.647138
0.648904
0.652239
0.656998
0.662387
0.667201
0.669429
0.680406
1.05376
1.0259
1.00658
0.974429
0.940193
0.934038
0.940616
0.940816
0.944264
0.949093
0.948628
0.943032
0.939562
0.940962
0.935569
0.941918
0.976388
1.00498
1.02454
1.05283
0.0751738
0.0852245
0.0782856
0.0774541
0.0772681
0.077457
0.0779166
0.0784998
0.0790288
0.0793304
0.0793027
0.0789682
0.0784623
0.0779692
0.0776549
0.0776356
0.0779826
0.0789479
0.0860085
0.0759416
0.541623
0.531133
0.531141
0.528239
0.524039
0.519862
0.516505
0.514268
0.513047
0.512551
0.512545
0.513042
0.514291
0.516596
0.520058
0.524364
0.528669
0.531707
0.531778
0.542364
0.400703
0.400514
0.400693
0.40053
0.400072
0.399477
0.398881
0.398385
0.398052
0.397916
0.397997
0.398297
0.39881
0.399475
0.400217
0.400951
0.401536
0.401818
0.401702
0.401963
0.36433
0.354578
0.349082
0.340155
0.330853
0.323543
0.319213
0.317662
0.317836
0.318355
0.318237
0.317509
0.317183
0.318565
0.322671
0.32973
0.338764
0.347477
0.352747
0.362319
0.810855
0.762037
0.716153
0.66576
0.625869
0.602973
0.596817
0.603358
0.616112
0.626326
0.626288
0.616089
0.603515
0.597276
0.603826
0.627196
0.667547
0.718344
0.763613
0.812029
0.0616073
0.0681511
0.0663121
0.0659924
0.0664421
0.067204
0.0681885
0.0692567
0.0701805
0.0707184
0.0707211
0.070192
0.069286
0.0682457
0.0672971
0.0665749
0.0661648
0.0665176
0.0683718
0.0618398
0.314373
0.310836
0.311844
0.311734
0.311394
0.311079
0.310824
0.31063
0.310496
0.310424
0.310417
0.310475
0.310595
0.310776
0.311016
0.311319
0.311647
0.311749
0.310735
0.314268
0.00084492
0.000188522
0.00149619
0.000516641
0.000130441
0.00208303
0.00157547
0.000546483
0.00115261
0.000161704
0.00181031
0.00111779
0.000211554
0.000851872
0.00219591
0.00080505
0.00188119
0.000685178
0.00176729
0.000271197
1.31118
1.34406
1.30116
1.27631
1.26566
1.26335
1.26537
1.26908
1.27265
1.27479
1.27478
1.27258
1.2689
1.26501
1.26277
1.26484
1.27523
1.29976
1.34229
1.30922
0.769163
0.798233
0.782662
0.774204
0.76951
0.767289
0.766546
0.766568
0.766839
0.767029
0.766945
0.766589
0.766153
0.765986
0.766598
0.76872
0.773356
0.781739
0.797218
0.768131
0.528421
0.527995
0.529077
0.530054
0.530925
0.531741
0.532486
0.533127
0.53362
0.533949
0.534089
0.534037
0.533632
0.532934
0.532232
0.531494
0.530694
0.529861
0.528899
0.529564
0.393701
0.615071
0.560645
0.520698
0.500959
0.491988
0.488181
0.486758
0.486338
0.486272
0.486283
0.486357
0.486751
0.488104
0.491803
0.500666
0.520359
0.560312
0.61482
0.393618
0.0550398
0.0544766
0.0548722
0.0548011
0.054709
0.0546356
0.0545813
0.0545433
0.0545176
0.0545017
0.0544944
0.0544959
0.0545081
0.0545339
0.0545776
0.054642
0.0547271
0.0547929
0.0543943
0.0549551
0.22636
0.329301
0.30839
0.294893
0.287951
0.284466
0.282714
0.281839
0.281412
0.281233
0.281216
0.281362
0.281755
0.282597
0.284316
0.28777
0.294689
0.308153
0.329029
0.226136
0.0901885
0.0912151
0.0908151
0.0907041
0.0907024
0.0907417
0.090803
0.090868
0.0909187
0.0909413
0.0909294
0.0908833
0.0908099
0.0907236
0.090643
0.0905864
0.0905733
0.0906724
0.0910623
0.0900368
0.0452601
0.0480601
0.047477
0.0474179
0.047506
0.047615
0.0476747
0.0476591
0.0476197
0.0476094
0.0476584
0.0477201
0.0477767
0.0478489
0.0479064
0.0479465
0.0479391
0.0479908
0.0485396
0.0456887
0.572623
0.565961
0.568836
0.570517
0.571635
0.572354
0.572767
0.572951
0.572993
0.572967
0.572898
0.572789
0.57262
0.572321
0.57181
0.571007
0.56981
0.568099
0.565222
0.571902
0.26726
0.274792
0.277366
0.278577
0.279226
0.279579
0.279803
0.27997
0.28009
0.280132
0.280089
0.279961
0.279761
0.279523
0.279235
0.278829
0.278141
0.276907
0.274328
0.266756
0.0573135
0.0580802
0.0578212
0.0577588
0.0577257
0.057709
0.0577027
0.0577015
0.0577015
0.0576992
0.0576942
0.0576869
0.0576776
0.0576701
0.0576685
0.0576784
0.0577059
0.0577639
0.05802
0.0572526
0.0775734
0.0811772
0.079922
0.0795327
0.0793581
0.0792692
0.0792268
0.0792089
0.0792009
0.0791946
0.079186
0.0791754
0.0791672
0.0791699
0.0791985
0.0792755
0.0794402
0.0798221
0.0810718
0.0774682
0.318515
0.323023
0.321502
0.321038
0.320893
0.320844
0.320828
0.32082
0.32081
0.320795
0.320773
0.320743
0.320711
0.320679
0.320658
0.320674
0.320791
0.321234
0.322738
0.318227
0.17152
0.177112
0.17509
0.174321
0.174207
0.174203
0.174227
0.174279
0.174361
0.174447
0.174546
0.174643
0.174746
0.174865
0.174994
0.175167
0.175421
0.176284
0.178382
0.172779
0.909336
0.928374
0.90943
0.896804
0.888616
0.88384
0.88131
0.880119
0.879663
0.87959
0.879755
0.880159
0.880926
0.88239
0.885151
0.890119
0.898486
0.911244
0.930196
0.911125
0.120496
0.123479
0.122839
0.122882
0.122946
0.122977
0.122985
0.122979
0.122962
0.122941
0.12292
0.122903
0.122891
0.12288
0.122859
0.122816
0.122741
0.122688
0.123325
0.120346
0.219632
0.22619
0.221969
0.220561
0.220813
0.221457
0.222149
0.222846
0.223479
0.223875
0.223865
0.223452
0.222809
0.222108
0.221419
0.220776
0.220524
0.221933
0.226162
0.219478
0.306985
0.304926
0.307554
0.308778
0.309032
0.308733
0.308181
0.307601
0.307135
0.306857
0.306794
0.30695
0.3073
0.307776
0.308236
0.308462
0.30815
0.306887
0.304236
0.306264
0.274727
0.27728
0.277096
0.277271
0.277435
0.277546
0.27761
0.277636
0.277639
0.277626
0.277605
0.277578
0.27754
0.277482
0.277394
0.277264
0.277087
0.276903
0.27708
0.274525
0.701891
0.769878
0.746467
0.733003
0.727761
0.726312
0.726575
0.727522
0.728522
0.729153
0.729136
0.728476
0.727458
0.726515
0.726277
0.727774
0.733103
0.746573
0.769908
0.701994
0.199366
0.196123
0.200133
0.201003
0.200512
0.199452
0.198264
0.197222
0.196472
0.196072
0.196037
0.19637
0.197056
0.198039
0.199173
0.200189
0.200645
0.19975
0.195728
0.198953
0.0304182
0.0340729
0.0333093
0.0332645
0.0331365
0.0329281
0.0328002
0.0328217
0.0329142
0.0329348
0.0328503
0.0327304
0.0326192
0.0324989
0.0323903
0.0323395
0.0323374
0.0324219
0.0332829
0.0297587
0.0953189
0.102718
0.101084
0.100601
0.100511
0.100449
0.100407
0.100386
0.100377
0.100372
0.100358
0.100336
0.100318
0.100313
0.100332
0.100373
0.100445
0.100913
0.102537
0.0951426
1.26509
1.22745
1.24517
1.24967
1.25004
1.24651
1.24136
1.23647
1.23282
1.2309
1.231
1.23314
1.23707
1.24232
1.24785
1.25169
1.25137
1.24703
1.22964
1.26386
1.04754
1.03595
1.04132
1.0451
1.04842
1.05159
1.05455
1.05711
1.05899
1.05998
1.05995
1.05891
1.05699
1.0544
1.05141
1.04823
1.0449
1.04114
1.0358
1.04745
0.105949
0.106744
0.106606
0.10658
0.106584
0.106607
0.106636
0.10666
0.106652
0.106623
0.106564
0.106504
0.10648
0.106481
0.106471
0.106458
0.106461
0.106501
0.106641
0.105851
0.291205
0.297949
0.296657
0.296413
0.296471
0.296566
0.296648
0.296704
0.296734
0.296736
0.296711
0.296661
0.296582
0.296479
0.296353
0.296217
0.296124
0.296338
0.297609
0.290864
0.350133
0.350382
0.350247
0.350193
0.350141
0.350081
0.350007
0.349915
0.349803
0.34967
0.349519
0.349353
0.349176
0.348998
0.348826
0.348669
0.34854
0.348455
0.348496
0.348197
0.694267
0.699224
0.696348
0.696097
0.696525
0.697173
0.697836
0.698446
0.698985
0.699458
0.699859
0.700172
0.700369
0.700421
0.70033
0.700166
0.700133
0.700693
0.703783
0.698941
0.741441
0.756542
0.74946
0.748164
0.748244
0.74884
0.749621
0.750448
0.751261
0.752015
0.75268
0.753234
0.753661
0.753959
0.754165
0.754404
0.755007
0.756848
0.764387
0.749205
0.438349
0.438997
0.438983
0.43918
0.439424
0.439686
0.439939
0.440167
0.440351
0.440481
0.440551
0.440559
0.440512
0.440419
0.440294
0.440155
0.440019
0.439908
0.439986
0.439365
0.298055
0.328472
0.314522
0.311953
0.312084
0.31242
0.312721
0.31297
0.313147
0.31324
0.313258
0.313215
0.313126
0.312993
0.312814
0.312588
0.312557
0.315257
0.329407
0.298797
0.550378
0.551886
0.551942
0.552373
0.552856
0.553352
0.553829
0.554268
0.554654
0.554973
0.555222
0.5554
0.555507
0.555551
0.555538
0.555475
0.555378
0.555262
0.555429
0.554037
0.21202
0.221309
0.217186
0.216179
0.215997
0.216082
0.216328
0.216687
0.217251
0.217921
0.218521
0.21884
0.218851
0.218779
0.218868
0.219163
0.219496
0.220439
0.224568
0.215002
0.377701
0.379246
0.37867
0.378573
0.378513
0.37846
0.378403
0.378342
0.378274
0.378199
0.37812
0.378038
0.377954
0.377874
0.3778
0.377739
0.377702
0.377723
0.378248
0.376677
0.0513
0.05129
0.0511151
0.0509205
0.0506955
0.0504843
0.050281
0.0500918
0.0499313
0.049837
0.0497926
0.0498282
0.0499377
0.0500893
0.0502672
0.0504742
0.0506759
0.0508656
0.0510348
0.0510574
0.390283
0.392937
0.39201
0.391931
0.391917
0.391907
0.39188
0.391833
0.391762
0.391676
0.391575
0.391464
0.391341
0.391207
0.391065
0.390922
0.390796
0.390757
0.391573
0.388952
0.427477
0.429654
0.42914
0.429307
0.429563
0.429866
0.430203
0.43056
0.430928
0.431293
0.43164
0.431959
0.432242
0.432479
0.432668
0.432811
0.432916
0.433022
0.433724
0.431621
0.0112666
0.0112799
0.0112339
0.0111882
0.0111346
0.0110772
0.0110209
0.01097
0.0109285
0.0109004
0.0108873
0.0108903
0.0109089
0.0109399
0.0109796
0.0110237
0.0110674
0.0111058
0.0111466
0.0111321
0.550322
0.552883
0.552205
0.552223
0.552335
0.552483
0.552646
0.552811
0.552975
0.553128
0.553268
0.553391
0.553499
0.553591
0.553672
0.553741
0.55382
0.55395
0.554739
0.552218
0.427444
0.429039
0.428542
0.428531
0.428573
0.428634
0.428694
0.428751
0.428796
0.428827
0.42884
0.428837
0.428818
0.42879
0.428753
0.428717
0.428695
0.428722
0.429232
0.42764
0.330391
0.332958
0.331999
0.331887
0.331817
0.331739
0.331654
0.331566
0.331476
0.331386
0.331308
0.331247
0.331202
0.331159
0.331118
0.331073
0.331036
0.33105
0.331925
0.329302
0.825878
0.825483
0.825839
0.82598
0.826049
0.826079
0.826103
0.826126
0.826151
0.82618
0.82621
0.826239
0.826264
0.826289
0.826298
0.826287
0.826228
0.826088
0.825727
0.826107
0.280621
0.282785
0.282021
0.281984
0.281979
0.28197
0.281956
0.281935
0.281908
0.281877
0.281845
0.281813
0.281781
0.281752
0.281722
0.281696
0.281679
0.281709
0.28248
0.280306
0.505706
0.505822
0.506163
0.506536
0.506966
0.507441
0.507935
0.508426
0.508898
0.509329
0.509709
0.510024
0.510263
0.510424
0.510511
0.510534
0.510507
0.510441
0.510304
0.510303
0.18196
0.182911
0.182526
0.182483
0.182444
0.182401
0.182356
0.182318
0.182289
0.182271
0.182254
0.182224
0.182181
0.182123
0.182074
0.182031
0.181998
0.181979
0.182311
0.181345
0.48967
0.491793
0.49108
0.490982
0.490957
0.490953
0.490952
0.49095
0.490939
0.490914
0.490872
0.49081
0.490726
0.49062
0.490496
0.490373
0.490274
0.49026
0.490931
0.488612
0.242212
0.243147
0.242806
0.24279
0.2428
0.242814
0.242828
0.242838
0.242845
0.242844
0.242836
0.242819
0.242797
0.24277
0.242741
0.242713
0.242693
0.242697
0.243033
0.242095
0.275751
0.276449
0.276219
0.276222
0.276229
0.276227
0.276211
0.276181
0.276145
0.276103
0.27606
0.276019
0.27598
0.275943
0.275909
0.275872
0.275838
0.275817
0.276037
0.275336
0.150152
0.150378
0.150193
0.150078
0.149945
0.149812
0.149697
0.149614
0.149572
0.14958
0.149639
0.149751
0.149907
0.1501
0.150313
0.150529
0.150727
0.150897
0.15112
0.150911
0.869476
0.873731
0.872292
0.871838
0.871531
0.871286
0.871077
0.870893
0.870737
0.870609
0.870511
0.870448
0.87042
0.870435
0.870493
0.870602
0.870797
0.871161
0.872557
0.868169
0.0386109
0.0386173
0.0386089
0.0385988
0.0385854
0.0385682
0.0385468
0.0385218
0.0384929
0.0384589
0.0384193
0.0383746
0.0383276
0.0382811
0.0382377
0.0382003
0.0381693
0.0381451
0.0381303
0.0381115
0.0659748
0.0663339
0.0660765
0.0659191
0.0657195
0.0655198
0.0653413
0.0651794
0.0650468
0.0649589
0.064904
0.0648819
0.0649356
0.0650418
0.0651693
0.0653184
0.0654605
0.0655939
0.0658538
0.0655597
0.0531415
0.0532945
0.0531936
0.0531486
0.0530968
0.0530434
0.0529939
0.0529519
0.0529171
0.0528884
0.0528659
0.0528503
0.0528439
0.0528465
0.0528595
0.0528783
0.0528998
0.0529218
0.0530043
0.0528479
0.00959654
0.00959937
0.00956413
0.0095258
0.00948081
0.00943329
0.00938781
0.00934837
0.00931951
0.00930417
0.00930468
0.00932177
0.00935353
0.00939713
0.0094475
0.00949987
0.00954888
0.00959007
0.00962663
0.00962407
0.159297
0.159812
0.159523
0.159404
0.159276
0.159147
0.15903
0.158941
0.158894
0.158898
0.158952
0.159058
0.159201
0.159368
0.159546
0.159718
0.159873
0.160006
0.160304
0.159788
0.258019
0.25997
0.259256
0.259204
0.259177
0.259149
0.259114
0.259073
0.259028
0.258973
0.258915
0.258849
0.258778
0.258705
0.258632
0.258561
0.258498
0.258479
0.259142
0.257167
0.0246128
0.0246394
0.0245675
0.0244959
0.0244161