/*--------------------------------*- C++ -*----------------------------------*\
| =========                 |                                                 |
| \\      /  F ield         | OpenFOAM: The Open Source CFD Toolbox           |
|  \\    /   O peration     | Version:  4.1                                   |
|   \\  /    A nd           | Web:      www.OpenFOAM.org                      |
|    \\/     M anipulation  |                                                 |
\*---------------------------------------------------------------------------*/
FoamFile
{
    version     2.0;
    format      ascii;
    class       volScalarField;
    location    "0.019";
    object      nut;
}
// * * * * * * * * * * * * * * * * * * * * * * * * * * * * * * * * * * * * * //

dimensions      [0 2 -1 0 0 0 0];

internalField   nonuniform List<scalar> 
278640
(
6.04673e-05
6.80377e-05
6.33419e-05
6.30391e-05
6.29018e-05
6.28729e-05
6.29228e-05
6.30119e-05
6.30997e-05
6.31529e-05
6.31526e-05
6.30994e-05
6.30117e-05
6.29227e-05
6.28726e-05
6.29015e-05
6.30385e-05
6.33414e-05
6.80372e-05
6.04668e-05
7.36521e-05
8.41771e-05
7.77261e-05
7.73338e-05
7.7152e-05
7.71101e-05
7.71717e-05
7.7284e-05
7.73955e-05
7.7463e-05
7.7463e-05
7.73955e-05
7.7284e-05
7.71718e-05
7.71101e-05
7.71521e-05
7.73339e-05
7.77261e-05
8.41772e-05
7.36522e-05
2.46604e-05
2.80797e-05
2.57938e-05
2.57913e-05
2.60242e-05
2.64379e-05
2.69882e-05
2.76787e-05
2.81932e-05
2.84228e-05
2.84123e-05
2.8466e-05
2.86032e-05
2.87698e-05
2.89401e-05
2.89561e-05
2.88297e-05
2.87353e-05
3.09835e-05
2.69686e-05
7.74161e-05
8.79916e-05
8.1413e-05
8.09654e-05
8.07582e-05
8.07108e-05
8.07817e-05
8.0913e-05
8.10428e-05
8.11216e-05
8.11216e-05
8.10428e-05
8.0913e-05
8.07817e-05
8.07108e-05
8.07582e-05
8.09653e-05
8.1413e-05
8.79916e-05
7.74161e-05
0.000103705
0.000117592
0.000109153
0.000108744
0.000108736
0.000108897
0.000109088
0.000109215
0.000109188
0.000108975
0.000108638
0.000108288
0.00010813
0.000108322
0.000108941
0.000109938
0.000111197
0.000112747
0.000122334
0.000108347
5.35348e-05
6.07651e-05
5.63781e-05
5.61939e-05
5.61538e-05
5.61978e-05
5.62968e-05
5.64141e-05
5.65141e-05
5.65695e-05
5.6565e-05
5.6501e-05
5.63931e-05
5.62695e-05
5.6167e-05
5.61221e-05
5.61636e-05
5.63499e-05
6.07367e-05
5.35091e-05
5.9947e-05
6.83964e-05
6.32489e-05
6.29434e-05
6.28259e-05
6.28211e-05
6.2897e-05
6.301e-05
6.31168e-05
6.3181e-05
6.3182e-05
6.31191e-05
6.30131e-05
6.28999e-05
6.28233e-05
6.28279e-05
6.29455e-05
6.32511e-05
6.83998e-05
5.99486e-05
5.83255e-05
6.69898e-05
6.16518e-05
6.13804e-05
6.13593e-05
6.14757e-05
6.16809e-05
6.19143e-05
6.21149e-05
6.22322e-05
6.22365e-05
6.21277e-05
6.19345e-05
6.17079e-05
6.15103e-05
6.14032e-05
6.1436e-05
6.17193e-05
6.70667e-05
5.84074e-05
0.000107119
0.000120448
0.000112132
0.000111472
0.000111194
0.000111151
0.000111282
0.000111502
0.000111716
0.000111844
0.000111844
0.000111716
0.000111502
0.000111282
0.000111151
0.000111194
0.000111472
0.000112132
0.000120448
0.000107118
0.000100882
0.000113911
0.000105452
0.000104721
0.000104447
0.000104457
0.000104673
0.000104986
0.000105282
0.000105459
0.000105459
0.000105282
0.000104986
0.000104672
0.000104457
0.000104447
0.000104721
0.000105452
0.000113911
0.000100882
6.15022e-05
6.97003e-05
6.46733e-05
6.43875e-05
6.42907e-05
6.43159e-05
6.44286e-05
6.45798e-05
6.47178e-05
6.47992e-05
6.47996e-05
6.47189e-05
6.45817e-05
6.44311e-05
6.43189e-05
6.42938e-05
6.43907e-05
6.46763e-05
6.97033e-05
6.15044e-05
4.72271e-05
5.4025e-05
4.9899e-05
4.98132e-05
4.98819e-05
5.00227e-05
5.01895e-05
5.03434e-05
5.04561e-05
5.05133e-05
5.05096e-05
5.0454e-05
5.03697e-05
5.02947e-05
5.02718e-05
5.03397e-05
5.05166e-05
5.08361e-05
5.51842e-05
4.83713e-05
5.66885e-05
6.52642e-05
5.99275e-05
5.9705e-05
5.97095e-05
5.98437e-05
6.0058e-05
6.02958e-05
6.05029e-05
6.06364e-05
6.06713e-05
6.0605e-05
6.04575e-05
6.02673e-05
6.00854e-05
5.99686e-05
5.99678e-05
6.01859e-05
6.55349e-05
5.69196e-05
6.66442e-05
7.64084e-05
7.02037e-05
6.97849e-05
6.96564e-05
6.97189e-05
6.99171e-05
7.01736e-05
7.0406e-05
7.05422e-05
7.05405e-05
7.04009e-05
7.01651e-05
6.99051e-05
6.9704e-05
6.96392e-05
6.97653e-05
7.01826e-05
7.63841e-05
6.66228e-05
6.38369e-05
7.30336e-05
6.70809e-05
6.6773e-05
6.67614e-05
6.69272e-05
6.72058e-05
6.75138e-05
6.77725e-05
6.79213e-05
6.79237e-05
6.77787e-05
6.75197e-05
6.72051e-05
6.69141e-05
6.67349e-05
6.67368e-05
6.70411e-05
7.29921e-05
6.38026e-05
6.31239e-05
7.18177e-05
6.65016e-05
6.61692e-05
6.60401e-05
6.60316e-05
6.61106e-05
6.62317e-05
6.63468e-05
6.64156e-05
6.64156e-05
6.63468e-05
6.62322e-05
6.61107e-05
6.60316e-05
6.60401e-05
6.61692e-05
6.65016e-05
7.18177e-05
6.31243e-05
8.38691e-05
9.58225e-05
8.81473e-05
8.75971e-05
8.74422e-05
8.75391e-05
8.78164e-05
8.81711e-05
8.84923e-05
8.86812e-05
8.86812e-05
8.84922e-05
8.81711e-05
8.78164e-05
8.75391e-05
8.74421e-05
8.75971e-05
8.81473e-05
9.58224e-05
8.38691e-05
6.73222e-05
7.85784e-05
7.20502e-05
7.18695e-05
7.18523e-05
7.19504e-05
7.2202e-05
7.25842e-05
7.29506e-05
7.32068e-05
7.32753e-05
7.31897e-05
7.29071e-05
7.23808e-05
7.15983e-05
7.06666e-05
6.97549e-05
6.91583e-05
7.50361e-05
6.3996e-05
6.08948e-05
7.02082e-05
6.44987e-05
6.42401e-05
6.42387e-05
6.43775e-05
6.4599e-05
6.48359e-05
6.50256e-05
6.51195e-05
6.50911e-05
6.49405e-05
6.46956e-05
6.44084e-05
6.41435e-05
6.39663e-05
6.39302e-05
6.41516e-05
6.9812e-05
6.05153e-05
8.7552e-05
0.000100181
9.21836e-05
9.16409e-05
9.14901e-05
9.15792e-05
9.18383e-05
9.21691e-05
9.24678e-05
9.26433e-05
9.26433e-05
9.24677e-05
9.21691e-05
9.18382e-05
9.15791e-05
9.14901e-05
9.16409e-05
9.21835e-05
0.000100181
8.75519e-05
7.15245e-05
8.15422e-05
7.48591e-05
7.43281e-05
7.42081e-05
7.43497e-05
7.46768e-05
7.50839e-05
7.54503e-05
7.56671e-05
7.56672e-05
7.54504e-05
7.5084e-05
7.4677e-05
7.43495e-05
7.4208e-05
7.43285e-05
7.48595e-05
8.15427e-05
7.15245e-05
7.23951e-05
8.36504e-05
7.65417e-05
7.60699e-05
7.59237e-05
7.59875e-05
7.62025e-05
7.6484e-05
7.67394e-05
7.68904e-05
7.68905e-05
7.67394e-05
7.6484e-05
7.62026e-05
7.59875e-05
7.59238e-05
7.607e-05
7.65417e-05
8.36505e-05
7.23951e-05
6.64291e-05
7.68944e-05
7.02014e-05
6.97932e-05
6.97123e-05
6.98317e-05
7.00893e-05
7.04014e-05
7.06773e-05
7.08391e-05
7.08394e-05
7.06782e-05
7.04024e-05
7.00906e-05
6.98332e-05
6.97138e-05
6.97947e-05
7.0203e-05
7.68961e-05
6.64307e-05
6.75163e-05
7.87258e-05
7.16167e-05
7.1183e-05
7.11078e-05
7.12389e-05
7.1513e-05
7.18421e-05
7.21321e-05
7.23016e-05
7.23016e-05
7.21321e-05
7.1842e-05
7.1513e-05
7.12388e-05
7.11077e-05
7.11829e-05
7.1617e-05
7.87257e-05
6.75162e-05
5.93444e-05
6.95005e-05
6.30303e-05
6.2739e-05
6.27404e-05
6.2903e-05
6.31649e-05
6.34521e-05
6.36912e-05
6.38207e-05
6.38049e-05
6.36437e-05
6.33737e-05
6.30574e-05
6.27724e-05
6.25956e-05
6.25902e-05
6.28843e-05
6.93479e-05
5.92164e-05
0.000127008
0.000145285
0.000133058
0.000131861
0.00013155
0.00013176
0.000132351
0.00013312
0.000133828
0.000134251
0.000134251
0.000133828
0.00013312
0.000132351
0.00013176
0.00013155
0.000131861
0.000133058
0.000145285
0.000127008
7.82601e-05
9.06223e-05
8.27682e-05
8.23812e-05
8.23903e-05
8.25866e-05
8.29219e-05
8.33258e-05
8.36777e-05
8.39055e-05
8.39587e-05
8.38311e-05
8.34902e-05
8.29332e-05
8.22179e-05
8.14771e-05
8.08577e-05
8.06438e-05
8.78657e-05
7.54789e-05
7.41263e-05
8.32239e-05
7.73881e-05
7.70346e-05
7.69794e-05
7.70537e-05
7.72568e-05
7.75735e-05
7.79471e-05
7.82573e-05
7.837e-05
7.82361e-05
7.79242e-05
7.75341e-05
7.71453e-05
7.68392e-05
7.66826e-05
7.68336e-05
8.24748e-05
7.33314e-05
0.0001025
0.000117932
0.000108111
0.000107281
0.000107031
0.000107126
0.000107473
0.000107936
0.000108363
0.000108617
0.000108617
0.000108363
0.000107936
0.000107473
0.000107126
0.000107031
0.000107281
0.000108111
0.000117932
0.0001025
8.64002e-05
9.94056e-05
9.07507e-05
9.00584e-05
8.9924e-05
9.01419e-05
9.06145e-05
9.11983e-05
9.17262e-05
9.20391e-05
9.2039e-05
9.17262e-05
9.11983e-05
9.06145e-05
9.01419e-05
8.9924e-05
9.00584e-05
9.07507e-05
9.94055e-05
8.64002e-05
6.10925e-05
7.04924e-05
6.42602e-05
6.39276e-05
6.39486e-05
6.41849e-05
6.45595e-05
6.49755e-05
6.53306e-05
6.55339e-05
6.55309e-05
6.53211e-05
6.49579e-05
6.45318e-05
6.41455e-05
6.38965e-05
6.38626e-05
6.41834e-05
7.04e-05
6.10093e-05
5.87e-05
6.74444e-05
6.19751e-05
6.17112e-05
6.17036e-05
6.18491e-05
6.20968e-05
6.2381e-05
6.26327e-05
6.27927e-05
6.2824e-05
6.27232e-05
6.25197e-05
6.227e-05
6.20434e-05
6.19085e-05
6.19195e-05
6.21842e-05
6.76739e-05
5.88938e-05
5.61546e-05
6.47595e-05
5.889e-05
5.84649e-05
5.83046e-05
5.8318e-05
5.85342e-05
5.88785e-05
5.92845e-05
5.97278e-05
6.02054e-05
6.07496e-05
6.12198e-05
6.15185e-05
6.1619e-05
6.16718e-05
6.18109e-05
6.22276e-05
6.8366e-05
5.91851e-05
6.75204e-05
7.81565e-05
7.14391e-05
7.10127e-05
7.09131e-05
7.10191e-05
7.12731e-05
7.15886e-05
7.18714e-05
7.20382e-05
7.20382e-05
7.18715e-05
7.15887e-05
7.12732e-05
7.10192e-05
7.09132e-05
7.10133e-05
7.14393e-05
7.81567e-05
6.75205e-05
7.5749e-05
8.63666e-05
7.89627e-05
7.82832e-05
7.81707e-05
7.84283e-05
7.89564e-05
7.96081e-05
8.02024e-05
8.05578e-05
8.05579e-05
8.02021e-05
7.96079e-05
7.89558e-05
7.84278e-05
7.81703e-05
7.82829e-05
7.89625e-05
8.63664e-05
7.57483e-05
7.39774e-05
8.52613e-05
7.75917e-05
7.69148e-05
7.67574e-05
7.69375e-05
7.73658e-05
7.79094e-05
7.84066e-05
7.87037e-05
7.87028e-05
7.84046e-05
7.7906e-05
7.73615e-05
7.69322e-05
7.67512e-05
7.69077e-05
7.75841e-05
8.52524e-05
7.39698e-05
6.43648e-05
7.54765e-05
6.8334e-05
6.78837e-05
6.78322e-05
6.80089e-05
6.83418e-05
6.87316e-05
6.90714e-05
6.92651e-05
6.92565e-05
6.90458e-05
6.86906e-05
6.82866e-05
6.79407e-05
6.77519e-05
6.77924e-05
6.82329e-05
7.53594e-05
6.42604e-05
0.000145614
0.000164675
0.000150605
0.000148924
0.000148663
0.000149275
0.000150542
0.000152131
0.000153606
0.000154498
0.000154498
0.000153606
0.000152131
0.000150542
0.000149275
0.000148663
0.000148924
0.000150605
0.000164675
0.000145614
0.000116762
0.000128983
0.000119519
0.000117932
0.000117507
0.000117821
0.000118715
0.00011994
0.000121145
0.000121934
0.000122031
0.000121431
0.000120404
0.000119344
0.000118602
0.000118429
0.000118986
0.000120698
0.000130325
0.000118033
0.000582874
0.000580807
0.000582679
0.000583034
0.000582485
0.000581443
0.000580222
0.000579069
0.000578173
0.000577661
0.000577594
0.000577973
0.000578735
0.00057976
0.00058086
0.000581788
0.000582237
0.000581806
0.000579877
0.000581924
0.000691544
0.000677845
0.00068276
0.000684445
0.000685206
0.000685516
0.000685571
0.000685488
0.000685357
0.00068524
0.000685174
0.000685157
0.000685162
0.000685129
0.000684968
0.000684564
0.000683721
0.000681979
0.000677038
0.000690653
0.000833061
0.000820731
0.000823117
0.000821907
0.000819329
0.000816433
0.000813908
0.000812097
0.000811041
0.000810595
0.000810617
0.000811106
0.000812198
0.000814043
0.000816599
0.000819523
0.000822117
0.000823345
0.000820968
0.000833319
0.00040423
0.000395369
0.000398015
0.000397322
0.000395704
0.00039401
0.000392594
0.000391583
0.000390969
0.000390684
0.000390668
0.000390923
0.000391508
0.000392493
0.000393887
0.000395562
0.000397163
0.000397846
0.000395197
0.000404044
0.000171093
0.000189626
0.000177383
0.00017553
0.000174537
0.000174063
0.000174043
0.000174338
0.000174762
0.000175124
0.000175283
0.000175193
0.000174927
0.000174654
0.000174582
0.000174901
0.000175726
0.000177434
0.000189628
0.000170936
0.000234289
0.000234825
0.000229273
0.000223663
0.000218995
0.000215633
0.000213547
0.000212474
0.000212029
0.000211827
0.000211628
0.000211427
0.000211458
0.000212107
0.000213762
0.000216701
0.000220977
0.000226255
0.000231566
0.000230961
0.000211397
0.000210547
0.000209674
0.000208386
0.000207189
0.000206318
0.00020584
0.0002057
0.000205762
0.00020588
0.000205957
0.000205996
0.000206094
0.000206399
0.000207048
0.000208092
0.000209456
0.000210891
0.000211873
0.000212793
0.000146945
0.000223977
0.000205907
0.000192591
0.0001837
0.00017802
0.000174639
0.00017283
0.000172
0.000171712
0.000171756
0.00017216
0.000173187
0.000175311
0.000179134
0.000185359
0.000194839
0.000208688
0.000227104
0.000150392
0.000551297
0.000547866
0.00054631
0.000543508
0.000540479
0.000537885
0.000536073
0.000535082
0.000534715
0.000534674
0.000534741
0.000534911
0.000535402
0.000536508
0.000538425
0.000541113
0.000544222
0.000547091
0.000548684
0.000552166
0.000578216
0.000571405
0.000574321
0.000575567
0.000576255
0.000576686
0.000576994
0.000577248
0.000577478
0.000577707
0.000577936
0.000578161
0.000578365
0.000578522
0.000578584
0.000578474
0.000578052
0.000577014
0.000574207
0.000581259
0.000398595
0.000399324
0.000399731
0.000399862
0.000399755
0.000399523
0.000399256
0.000399016
0.000398849
0.00039878
0.000398819
0.000398965
0.000399205
0.000399516
0.000399848
0.000400137
0.000400291
0.000400196
0.000399811
0.000399097
0.000187439
0.000175515
0.000177099
0.000170473
0.000163776
0.000159453
0.000157795
0.000158166
0.000159506
0.000160661
0.000160832
0.000160008
0.000158973
0.000158883
0.000160815
0.000165415
0.000172385
0.000179239
0.000177784
0.000189816
0.000160234
0.000180145
0.000166262
0.00016433
0.000163764
0.000164045
0.00016496
0.000166188
0.000167342
0.000168062
0.000168121
0.000167514
0.000166455
0.000165298
0.000164422
0.000164152
0.00016471
0.000166636
0.000180611
0.000160534
0.000112793
0.000123634
0.000113881
0.000112266
0.00011216
0.000113076
0.00011479
0.000116956
0.000119021
0.00012029
0.000120233
0.000118854
0.000116692
0.000114459
0.000112719
0.000111821
0.000111983
0.000113672
0.000123518
0.000112676
0.00045448
0.000449198
0.000447767
0.000443574
0.000438526
0.000434043
0.000430874
0.000429151
0.000428532
0.000428449
0.000428476
0.000428612
0.000429279
0.000431044
0.000434257
0.000438789
0.000443893
0.000448144
0.000449616
0.000454969
0.000182664
0.000181974
0.000182214
0.000181645
0.000180848
0.000180093
0.000179503
0.000179111
0.000178898
0.000178818
0.000178839
0.000178964
0.000179225
0.000179669
0.000180315
0.000181128
0.000181981
0.000182598
0.000182395
0.000183094
0.000802946
0.000803814
0.000804756
0.000805683
0.000806496
0.000807227
0.000807871
0.000808412
0.00080883
0.000809122
0.000809286
0.000809301
0.000809037
0.000808518
0.000807924
0.000807273
0.000806537
0.000805694
0.00080476
0.000804025
0.0003879
0.000386239
0.000386271
0.000385464
0.000384377
0.000383342
0.000382536
0.00038201
0.000381729
0.000381621
0.000381631
0.000381758
0.000382056
0.000382597
0.000383415
0.000384456
0.000385543
0.000386346
0.000386308
0.000387975
0.000628946
0.000624897
0.000625702
0.00062453
0.000622322
0.000619825
0.000617563
0.000615827
0.000614702
0.000614151
0.000614121
0.000614615
0.000615686
0.000617373
0.000619588
0.000622044
0.000624217
0.00062536
0.000624539
0.000628551
0.000411995
0.000409398
0.000409964
0.00040929
0.000408215
0.000407242
0.00040658
0.000406248
0.000406152
0.000406155
0.000406164
0.000406177
0.000406288
0.000406632
0.000407304
0.000408281
0.000409354
0.000410023
0.000409452
0.000412045
0.000185993
0.000223773
0.00021293
0.000204209
0.000197858
0.000193558
0.000190929
0.000189561
0.000189029
0.000188955
0.000189127
0.000189534
0.000190377
0.000192026
0.000194912
0.000199454
0.000206037
0.000214984
0.000226025
0.000188025
0.000768045
0.000767137
0.00076975
0.000771305
0.000772024
0.000772172
0.000771961
0.00077158
0.000771195
0.000770937
0.000770876
0.000771014
0.000771285
0.000771563
0.000771683
0.000771456
0.000770668
0.000769062
0.000766406
0.000767332
0.000197279
0.000197507
0.000197103
0.000196403
0.000195643
0.00019501
0.00019458
0.000194342
0.000194224
0.000194143
0.000194041
0.000193922
0.000193846
0.000193902
0.000194166
0.000194655
0.000195294
0.0001959
0.000196238
0.000195983
0.000782724
0.000768785
0.000771428
0.000770096
0.000767164
0.000763896
0.0007611
0.000759138
0.000758006
0.0007575
0.000757433
0.000757811
0.000758833
0.000760713
0.000763449
0.000766671
0.000769562
0.000770876
0.000768229
0.000782104
0.000581776
0.000562187
0.000566593
0.000566335
0.000564641
0.000562642
0.000560966
0.000559852
0.000559255
0.000558986
0.00055889
0.000558973
0.000559402
0.000560368
0.000561925
0.000563831
0.000565448
0.000565674
0.000561277
0.000580811
0.000463111
0.000453945
0.000456373
0.00045572
0.000453972
0.000452096
0.00045054
0.000449462
0.000448832
0.000448538
0.000448488
0.000448682
0.000449216
0.000450207
0.000451687
0.000453497
0.000455192
0.000455812
0.000453364
0.000462505
0.000600192
0.000595196
0.000597311
0.000598094
0.000598254
0.000598132
0.000597914
0.000597714
0.0005976
0.000597608
0.000597751
0.000598021
0.000598401
0.000598845
0.000599277
0.000599583
0.00059957
0.000598901
0.000596849
0.000601988
0.000695053
0.00069222
0.000694772
0.000696208
0.000696975
0.000697347
0.000697478
0.000697477
0.000697431
0.000697405
0.000697437
0.00069752
0.000697603
0.000697621
0.000697508
0.000697156
0.0006964
0.000694983
0.000692439
0.000695291
0.00157627
0.00151865
0.00138172
0.00128181
0.00123569
0.00124862
0.0013188
0.00143464
0.00156709
0.00166639
0.00166496
0.00156364
0.00143099
0.00131563
0.00124566
0.0012325
0.00127805
0.00137686
0.00151196
0.00156778
0.00053189
0.000522787
0.00050688
0.000492158
0.000481181
0.000474667
0.000472314
0.000473151
0.000475562
0.000477529
0.000477525
0.000475522
0.000473016
0.000472044
0.00047426
0.000480652
0.000491514
0.000506114
0.000521881
0.000530968
0.00109138
0.000922773
0.00079393
0.000710248
0.000680869
0.000705382
0.000778448
0.000884625
0.000992703
0.00106238
0.00106124
0.000989015
0.000878937
0.000772116
0.000698933
0.000673958
0.000702422
0.000785447
0.000914873
0.00108479
0.000876969
0.000867302
0.000868421
0.00086762
0.000866184
0.000864791
0.000863811
0.00086334
0.000863245
0.000863297
0.00086333
0.000863341
0.000863497
0.000864021
0.000865041
0.000866462
0.000867903
0.000868735
0.000867638
0.00087739
8.59649e-05
8.45176e-05
8.51925e-05
8.49829e-05
8.46674e-05
8.44054e-05
8.42306e-05
8.41262e-05
8.40534e-05
8.39712e-05
8.38556e-05
8.3709e-05
8.35595e-05
8.34501e-05
8.34174e-05
8.34742e-05
8.35891e-05
8.36175e-05
8.28084e-05
8.41608e-05
0.000830021
0.000826272
0.000828579
0.00082998
0.000830764
0.000831121
0.000831184
0.00083107
0.000830884
0.000830706
0.000830584
0.000830522
0.000830478
0.000830379
0.000830118
0.000829586
0.000828648
0.000827128
0.000824724
0.000828443
6.53821e-05
7.42587e-05
6.89682e-05
6.8633e-05
6.85009e-05
6.84588e-05
6.84992e-05
6.85958e-05
6.86989e-05
6.87556e-05
6.8735e-05
6.86467e-05
6.85421e-05
6.8486e-05
6.85338e-05
6.87339e-05
6.91054e-05
6.9728e-05
7.52951e-05
6.65185e-05
0.000812812
0.000802364
0.000805741
0.00080711
0.000807676
0.000807829
0.000807763
0.000807593
0.000807393
0.00080721
0.000807066
0.000806961
0.000806877
0.000806779
0.000806596
0.000806221
0.000805466
0.000803974
0.000800521
0.000811005
9.60716e-05
9.25901e-05
9.40859e-05
9.31234e-05
9.22339e-05
9.17959e-05
9.17659e-05
9.19862e-05
9.22576e-05
9.23981e-05
9.2302e-05
9.19763e-05
9.15331e-05
9.11447e-05
9.09903e-05
9.12144e-05
9.18587e-05
9.25684e-05
9.08804e-05
9.4155e-05
0.000859482
0.00084989
0.000850697
0.000848817
0.000845748
0.000842491
0.000839698
0.000837686
0.000836485
0.000835955
0.000835974
0.000836537
0.000837771
0.000839812
0.000842632
0.000845915
0.000848988
0.000850891
0.000850085
0.000859726
0.000208662
0.000241596
0.000216494
0.000211702
0.000210182
0.000210219
0.000211355
0.000213124
0.000214938
0.000216133
0.00021623
0.000215193
0.000213448
0.000211619
0.000210285
0.000209934
0.00021107
0.000215452
0.000240088
0.000207193
0.000535536
0.000533972
0.000534739
0.000534543
0.000533823
0.000532904
0.000532007
0.000531267
0.000530755
0.000530493
0.000530487
0.000530743
0.000531256
0.000531998
0.000532899
0.000533823
0.000534553
0.000534757
0.000533992
0.000535567
0.000608886
0.000608213
0.000608409
0.000607559
0.000606041
0.000604307
0.000602689
0.000601394
0.000600511
0.000600058
0.000600032
0.000600439
0.000601289
0.000602555
0.000604146
0.000605854
0.000607352
0.000608186
0.000607969
0.000608654
0.00107832
0.0011165
0.00106107
0.00101925
0.0010092
0.00104264
0.0011284
0.00127026
0.00145696
0.00164167
0.00163598
0.00145099
0.00126617
0.00112604
0.0010414
0.00100865
0.00101923
0.00106103
0.00111615
0.00107805
0.000514906
0.00051468
0.000515239
0.000515143
0.000514556
0.000513731
0.000512865
0.000512104
0.000511539
0.000511219
0.000511166
0.000511376
0.00051183
0.000512482
0.000513254
0.000514003
0.000514528
0.000514582
0.000513988
0.000514207
0.000289743
0.000280327
0.000277313
0.000274598
0.000274206
0.000278053
0.000286879
0.000300883
0.00032004
0.000341347
0.000341028
0.0003192
0.000299615
0.000285247
0.00027612
0.000272036
0.000272257
0.000274855
0.000277796
0.000287613
0.000333876
0.000329468
0.000329347
0.000327246
0.000324741
0.000322772
0.000321655
0.000321308
0.000321401
0.000321537
0.000321441
0.000321114
0.000320834
0.000321005
0.00032196
0.000323787
0.000326172
0.000328178
0.000328231
0.000332593
0.00151834
0.00155072
0.00144527
0.0013655
0.00133222
0.00135611
0.00142267
0.00148375
0.00151585
0.00153748
0.00153669
0.00151409
0.00148218
0.00142321
0.00135937
0.00133773
0.00137321
0.00145396
0.00155779
0.00152118
0.00036424
0.000361303
0.000358003
0.000353651
0.000349793
0.000347302
0.00034636
0.000346659
0.000347541
0.00034822
0.000348149
0.000347327
0.000346303
0.000345861
0.000346658
0.000349004
0.000352722
0.00035695
0.00036015
0.000363039
7.0677e-05
8.02933e-05
7.58141e-05
7.52315e-05
7.56645e-05
7.64854e-05
7.76774e-05
7.90779e-05
8.03717e-05
8.12057e-05
8.13401e-05
8.07654e-05
7.97078e-05
7.85177e-05
7.75134e-05
7.68578e-05
7.65675e-05
7.72839e-05
8.19112e-05
7.21596e-05
0.000881351
0.000871052
0.000863953
0.000854831
0.00084638
0.000840263
0.000837032
0.000836352
0.000837167
0.00083814
0.000838322
0.000837714
0.000837261
0.000838281
0.000841834
0.000848269
0.000857013
0.000866429
0.000873658
0.000884153
0.000919676
0.000908561
0.000912776
0.000914556
0.000914843
0.000914274
0.000913268
0.000912155
0.000911199
0.000910578
0.000910396
0.000910653
0.000911263
0.000912045
0.00091275
0.000913047
0.000912491
0.000910568
0.000906287
0.000917471
0.000760109
0.000755351
0.000756841
0.000757201
0.000756793
0.00075602
0.000755144
0.000754356
0.000753787
0.000753516
0.000753575
0.000753962
0.000754645
0.000755541
0.000756522
0.000757388
0.000757858
0.000757573
0.000756117
0.000760992
0.00118178
0.00116284
0.00115907
0.00115093
0.00114166
0.00113349
0.00112772
0.00112461
0.00112348
0.00112326
0.00112317
0.00112321
0.00112422
0.0011273
0.0011331
0.00114138
0.00115076
0.00115914
0.00116302
0.0011821
0.00172885
0.00168311
0.00165139
0.0015986
0.00154239
0.00153225
0.001543
0.00154329
0.00154892
0.00155683
0.00155607
0.0015469
0.00154123
0.00154356
0.00153476
0.00154522
0.00160181
0.00164877
0.00168089
0.00172731
0.000101178
0.000114723
0.000105375
0.000104253
0.000104001
0.000104254
0.000104872
0.000105656
0.000106367
0.000106773
0.000106736
0.000106286
0.000105605
0.000104942
0.00010452
0.000104496
0.000104965
0.000106267
0.00011578
0.000102212
0.000930802
0.000912759
0.000912763
0.000907763
0.000900534
0.000893343
0.000887563
0.000883709
0.000881603
0.000880747
0.000880737
0.000881596
0.00088375
0.000887721
0.000893682
0.000901094
0.000908506
0.000913738
0.000913871
0.000932078
0.000715007
0.000714667
0.000714985
0.00071469
0.000713871
0.000712806
0.000711739
0.000710852
0.000710256
0.000710012
0.000710156
0.000710693
0.00071161
0.0007128
0.000714127
0.00071544
0.000716488
0.000716994
0.00071679
0.000717259
0.000589125
0.000573339
0.000564435
0.00054998
0.00053492
0.000523081
0.000516062
0.00051354
0.000513813
0.000514646
0.000514455
0.000513283
0.000512765
0.000515013
0.000521668
0.000533102
0.000547729
0.000561835
0.000570374
0.000585869
0.00132564
0.0012458
0.00117075
0.00108832
0.00102307
0.000985601
0.000975502
0.000986164
0.00100699
0.00102368
0.00102361
0.00100695
0.00098642
0.000976248
0.000986991
0.00102523
0.00109124
0.00117433
0.00124837
0.00132756
9.63489e-05
0.000106585
0.000103703
0.0001032
0.0001039
0.000105088
0.000106625
0.000108293
0.000109736
0.000110576
0.00011058
0.000109754
0.00010834
0.000106716
0.000105236
0.00010411
0.000103472
0.000104028
0.000106933
9.67157e-05
0.000486353
0.000480863
0.000482416
0.000482241
0.000481711
0.00048122
0.000480822
0.000480517
0.000480307
0.000480194
0.000480183
0.000480275
0.000480463
0.000480746
0.000481123
0.000481595
0.000482107
0.000482268
0.000480705
0.000486191
1.43829e-06
2.25354e-07
2.64178e-06
8.31687e-07
1.18025e-07
3.7262e-06
2.78828e-06
8.86833e-07
2.00691e-06
1.75797e-07
3.22226e-06
1.94254e-06
2.67915e-07
1.45116e-06
3.93477e-06
1.36463e-06
3.35322e-06
1.14312e-06
3.14272e-06
3.78125e-07
0.00207641
0.00212843
0.00206047
0.00202112
0.00200425
0.00200059
0.00200378
0.00200965
0.0020153
0.00201868
0.00201866
0.0020152
0.00200938
0.00200322
0.00199967
0.00200295
0.00201941
0.00205826
0.00212565
0.00207331
0.00145267
0.00150757
0.00147815
0.00146218
0.00145331
0.00144912
0.00144772
0.00144776
0.00144828
0.00144864
0.00144848
0.0014478
0.00144698
0.00144666
0.00144782
0.00145182
0.00146057
0.00147641
0.00150565
0.00145072
0.000992019
0.000991218
0.000993249
0.000995085
0.000996721
0.000998254
0.000999655
0.00100086
0.00100179
0.0010024
0.00100267
0.00100257
0.00100181
0.0010005
0.000999179
0.00099779
0.000996288
0.000994723
0.000992916
0.000994167
0.00054229
0.000847464
0.000772548
0.000717514
0.000690301
0.000677918
0.000672654
0.000670678
0.000670089
0.000669993
0.000670007
0.000670114
0.000670668
0.000672546
0.000677662
0.000689893
0.000717043
0.000772086
0.000847114
0.000542175
8.95722e-05
8.86389e-05
8.9281e-05
8.91636e-05
8.90117e-05
8.88902e-05
8.87997e-05
8.87361e-05
8.86931e-05
8.86665e-05
8.86547e-05
8.86578e-05
8.86789e-05
8.87225e-05
8.87957e-05
8.89027e-05
8.90431e-05
8.9152e-05
8.85048e-05
8.94342e-05
0.000311285
0.000453014
0.000424299
0.000405744
0.00039619
0.000391387
0.000388966
0.000387754
0.000387161
0.000386911
0.000386887
0.000387091
0.000387638
0.000388804
0.000391178
0.000395939
0.000405461
0.000423969
0.000452637
0.000310974
0.000152879
0.000154619
0.000153941
0.000153754
0.000153751
0.000153817
0.000153921
0.00015403
0.000154116
0.000154154
0.000154134
0.000154056
0.000153932
0.000153786
0.00015365
0.000153555
0.000153532
0.0001537
0.000154361
0.000152623
7.2959e-05
7.747e-05
7.65287e-05
7.6434e-05
7.65765e-05
7.67527e-05
7.68493e-05
7.68245e-05
7.67613e-05
7.67448e-05
7.6824e-05
7.69234e-05
7.70147e-05
7.71308e-05
7.72233e-05
7.72877e-05
7.72754e-05
7.73584e-05
7.82444e-05
7.36513e-05
0.0010793
0.00106674
0.00107216
0.00107533
0.00107744
0.00107879
0.00107957
0.00107992
0.00108
0.00107995
0.00107982
0.00107962
0.0010793
0.00107873
0.00107777
0.00107625
0.00107399
0.00107077
0.00106535
0.00107794
0.000401826
0.000413153
0.00041702
0.000418835
0.000419805
0.000420331
0.000420664
0.000420911
0.000421089
0.000421151
0.000421087
0.000420895
0.000420596
0.00042024
0.000419812
0.000419205
0.000418176
0.000416326
0.000412453
0.000401066
8.5017e-05
8.61577e-05
8.57706e-05
8.56754e-05
8.56237e-05
8.55967e-05
8.55854e-05
8.55821e-05
8.5581e-05
8.5577e-05
8.55697e-05
8.55593e-05
8.55465e-05
8.55369e-05
8.55364e-05
8.55533e-05
8.55967e-05
8.56854e-05
8.6068e-05
8.49264e-05
0.000108093
0.000113137
0.000111389
0.000110846
0.0001106
0.000110475
0.000110414
0.000110388
0.000110376
0.000110367
0.000110355
0.00011034
0.00011033
0.000110335
0.000110376
0.000110485
0.000110716
0.00011125
0.00011299
0.000107947
0.000480561
0.000487371
0.000485074
0.000484369
0.000484145
0.000484065
0.000484036
0.000484019
0.000484
0.000483977
0.000483942
0.000483899
0.000483853
0.00048381
0.000483783
0.000483814
0.000483996
0.000484668
0.00048694
0.000480125
0.000323721
0.000334272
0.000330454
0.000329003
0.000328788
0.000328781
0.000328826
0.000328923
0.000329079
0.000329241
0.000329429
0.000329611
0.000329806
0.00033003
0.000330274
0.000330598
0.000331077
0.000332707
0.000336668
0.000326097
0.00135321
0.00138157
0.00135338
0.00133458
0.00132237
0.00131524
0.00131145
0.00130966
0.00130897
0.00130885
0.0013091
0.00130971
0.00131086
0.00131305
0.00131718
0.0013246
0.00133707
0.00135607
0.00138427
0.00135586
0.000207601
0.000212758
0.000211654
0.000211729
0.000211839
0.000211892
0.000211906
0.000211894
0.000211866
0.00021183
0.000211793
0.000211763
0.000211743
0.000211725
0.000211689
0.000211616
0.000211485
0.000211395
0.000212492
0.000207342
0.000383533
0.000394972
0.000387597
0.000385139
0.000385578
0.000386702
0.000387909
0.000389124
0.000390227
0.000390917
0.0003909
0.00039018
0.000389059
0.000387837
0.000386635
0.000385515
0.000385075
0.000387536
0.000394925
0.000383263
0.000531596
0.000528021
0.00053257
0.000534689
0.000535129
0.000534609
0.000533651
0.000532643
0.000531833
0.000531349
0.000531241
0.000531512
0.000532122
0.000532948
0.000533749
0.000534142
0.000533603
0.000531414
0.000526826
0.000530348
0.000445307
0.00044945
0.000449153
0.000449438
0.000449704
0.000449884
0.000449989
0.000450032
0.000450036
0.000450015
0.000449981
0.000449938
0.000449875
0.000449782
0.000449639
0.000449429
0.000449141
0.000448841
0.000449128
0.000444982
0.00111251
0.00122023
0.0011831
0.00116175
0.00115344
0.00115114
0.00115156
0.00115306
0.00115464
0.00115564
0.00115561
0.00115457
0.00115296
0.00115147
0.00115109
0.00115347
0.00116192
0.00118327
0.00122028
0.00111267
0.000342051
0.000336462
0.000343337
0.000344829
0.000343985
0.000342164
0.000340122
0.000338332
0.000337043
0.000336355
0.000336296
0.000336869
0.000338047
0.000339736
0.000341686
0.000343431
0.000344214
0.000342679
0.000335782
0.000341343
4.24469e-05
4.75501e-05
4.64821e-05
4.64189e-05
4.6239e-05
4.5947e-05
4.57676e-05
4.57971e-05
4.59261e-05
4.59547e-05
4.58366e-05
4.56691e-05
4.5514e-05
4.53463e-05
4.5195e-05
4.51248e-05
4.51227e-05
4.52413e-05
4.64455e-05
4.15244e-05
0.000149617
0.000161227
0.00015866
0.000157902
0.000157761
0.000157663
0.000157597
0.000157565
0.00015755
0.000157542
0.00015752
0.000157486
0.000157458
0.00015745
0.000157479
0.000157544
0.000157657
0.000158391
0.000160942
0.00014934
0.00199182
0.00193249
0.00196037
0.00196744
0.001968
0.00196244
0.00195433
0.00194662
0.00194088
0.00193785
0.001938