/*--------------------------------*- C++ -*----------------------------------*\
| =========                 |                                                 |
| \\      /  F ield         | OpenFOAM: The Open Source CFD Toolbox           |
|  \\    /   O peration     | Version:  4.1                                   |
|   \\  /    A nd           | Web:      www.OpenFOAM.org                      |
|    \\/     M anipulation  |                                                 |
\*---------------------------------------------------------------------------*/
FoamFile
{
    version     2.0;
    format      ascii;
    class       volScalarField;
    location    "0.019";
    object      p;
}
// * * * * * * * * * * * * * * * * * * * * * * * * * * * * * * * * * * * * * //

dimensions      [1 -1 -2 0 0 0 0];

internalField   nonuniform List<scalar> 
278640
(
7.87729e+06
7.87075e+06
7.87145e+06
7.87237e+06
7.87334e+06
7.87427e+06
7.87509e+06
7.87574e+06
7.8762e+06
7.87643e+06
7.87643e+06
7.8762e+06
7.87574e+06
7.87509e+06
7.87427e+06
7.87334e+06
7.87237e+06
7.87145e+06
7.87075e+06
7.87729e+06
7.95462e+06
7.94942e+06
7.95001e+06
7.95076e+06
7.95154e+06
7.95229e+06
7.95295e+06
7.95348e+06
7.95385e+06
7.95404e+06
7.95404e+06
7.95385e+06
7.95348e+06
7.95295e+06
7.95229e+06
7.95154e+06
7.95076e+06
7.95001e+06
7.94942e+06
7.95462e+06
7.01666e+06
6.99989e+06
7.00138e+06
7.00316e+06
7.00496e+06
7.00665e+06
7.0081e+06
7.00925e+06
7.01003e+06
7.01044e+06
7.01044e+06
7.01004e+06
7.00924e+06
7.00809e+06
7.00662e+06
7.00493e+06
7.00313e+06
7.00135e+06
6.99987e+06
7.01662e+06
7.97001e+06
7.96551e+06
7.96601e+06
7.96666e+06
7.96733e+06
7.96799e+06
7.96856e+06
7.96903e+06
7.96935e+06
7.96952e+06
7.96952e+06
7.96935e+06
7.96903e+06
7.96856e+06
7.96799e+06
7.96733e+06
7.96666e+06
7.96601e+06
7.96551e+06
7.97001e+06
6.94758e+06
6.93364e+06
6.93481e+06
6.93647e+06
6.93817e+06
6.93977e+06
6.94116e+06
6.94226e+06
6.94302e+06
6.94341e+06
6.94341e+06
6.94303e+06
6.94227e+06
6.94117e+06
6.93977e+06
6.93815e+06
6.93643e+06
6.93475e+06
6.93358e+06
6.94748e+06
7.69538e+06
7.68616e+06
7.68713e+06
7.68838e+06
7.68968e+06
7.69093e+06
7.69203e+06
7.69291e+06
7.69352e+06
7.69383e+06
7.69383e+06
7.69352e+06
7.69291e+06
7.69203e+06
7.69093e+06
7.68968e+06
7.68838e+06
7.68713e+06
7.68616e+06
7.69538e+06
7.75235e+06
7.74439e+06
7.74527e+06
7.74643e+06
7.74765e+06
7.74882e+06
7.74986e+06
7.75069e+06
7.75127e+06
7.75157e+06
7.75157e+06
7.75127e+06
7.75069e+06
7.74986e+06
7.74882e+06
7.74765e+06
7.74643e+06
7.74527e+06
7.74439e+06
7.75235e+06
7.43214e+06
7.4229e+06
7.42395e+06
7.42538e+06
7.42688e+06
7.42833e+06
7.42961e+06
7.43064e+06
7.43136e+06
7.43172e+06
7.43172e+06
7.43136e+06
7.43064e+06
7.42961e+06
7.42833e+06
7.42688e+06
7.42538e+06
7.42395e+06
7.4229e+06
7.43213e+06
8.00542e+06
8.00299e+06
8.00329e+06
8.00369e+06
8.00412e+06
8.00453e+06
8.0049e+06
8.00519e+06
8.0054e+06
8.00551e+06
8.00551e+06
8.0054e+06
8.00519e+06
8.0049e+06
8.00453e+06
8.00412e+06
8.00369e+06
8.00329e+06
8.00299e+06
8.00542e+06
8.00205e+06
7.99943e+06
7.99977e+06
8.00024e+06
8.00074e+06
8.00122e+06
8.00165e+06
8.002e+06
8.00224e+06
8.00236e+06
8.00236e+06
8.00224e+06
8.002e+06
8.00165e+06
8.00122e+06
8.00074e+06
8.00024e+06
7.99977e+06
7.99943e+06
8.00205e+06
7.82331e+06
7.81695e+06
7.81769e+06
7.81867e+06
7.8197e+06
7.82069e+06
7.82158e+06
7.8223e+06
7.8228e+06
7.82306e+06
7.82306e+06
7.8228e+06
7.8223e+06
7.82158e+06
7.82069e+06
7.8197e+06
7.81867e+06
7.81769e+06
7.81695e+06
7.82331e+06
7.30144e+06
7.2906e+06
7.29183e+06
7.29339e+06
7.29502e+06
7.29657e+06
7.29794e+06
7.29904e+06
7.2998e+06
7.30019e+06
7.30019e+06
7.2998e+06
7.29904e+06
7.29795e+06
7.29657e+06
7.29502e+06
7.29339e+06
7.29182e+06
7.2906e+06
7.30142e+06
7.53628e+06
7.52631e+06
7.52739e+06
7.52881e+06
7.5303e+06
7.53173e+06
7.53299e+06
7.534e+06
7.5347e+06
7.53506e+06
7.53506e+06
7.5347e+06
7.534e+06
7.53299e+06
7.53173e+06
7.5303e+06
7.52881e+06
7.52739e+06
7.52631e+06
7.53628e+06
7.79362e+06
7.78745e+06
7.78824e+06
7.78927e+06
7.79037e+06
7.79144e+06
7.79239e+06
7.79316e+06
7.7937e+06
7.79397e+06
7.79397e+06
7.7937e+06
7.79316e+06
7.79239e+06
7.79144e+06
7.79037e+06
7.78927e+06
7.78824e+06
7.78745e+06
7.79362e+06
7.60412e+06
7.59565e+06
7.59664e+06
7.59797e+06
7.59937e+06
7.60072e+06
7.60192e+06
7.60288e+06
7.60354e+06
7.60389e+06
7.60389e+06
7.60354e+06
7.60288e+06
7.60192e+06
7.60072e+06
7.59937e+06
7.59797e+06
7.59664e+06
7.59565e+06
7.60412e+06
7.93861e+06
7.93319e+06
7.93378e+06
7.93457e+06
7.93541e+06
7.93621e+06
7.93692e+06
7.93749e+06
7.93789e+06
7.93809e+06
7.93809e+06
7.93789e+06
7.93749e+06
7.93692e+06
7.93621e+06
7.93541e+06
7.93457e+06
7.93378e+06
7.93319e+06
7.93861e+06
7.99324e+06
7.98998e+06
7.9904e+06
7.99098e+06
7.99158e+06
7.99217e+06
7.99269e+06
7.99311e+06
7.99341e+06
7.99356e+06
7.99356e+06
7.99341e+06
7.99311e+06
7.99269e+06
7.99217e+06
7.99158e+06
7.99098e+06
7.9904e+06
7.98998e+06
7.99324e+06
7.117e+06
7.10147e+06
7.10276e+06
7.10454e+06
7.10636e+06
7.10808e+06
7.10957e+06
7.11075e+06
7.11155e+06
7.11196e+06
7.11196e+06
7.11154e+06
7.11073e+06
7.10954e+06
7.10805e+06
7.10635e+06
7.10453e+06
7.10276e+06
7.10148e+06
7.11705e+06
7.37259e+06
7.36253e+06
7.36365e+06
7.36516e+06
7.36674e+06
7.36826e+06
7.3696e+06
7.37067e+06
7.37142e+06
7.37181e+06
7.37181e+06
7.37142e+06
7.37068e+06
7.3696e+06
7.36826e+06
7.36675e+06
7.36516e+06
7.36365e+06
7.36253e+06
7.3726e+06
7.99802e+06
7.99485e+06
7.99525e+06
7.99578e+06
7.99633e+06
7.99687e+06
7.99735e+06
7.99773e+06
7.998e+06
7.99814e+06
7.99814e+06
7.998e+06
7.99773e+06
7.99735e+06
7.99687e+06
7.99633e+06
7.99578e+06
7.99525e+06
7.99485e+06
7.99802e+06
7.92162e+06
7.91732e+06
7.91788e+06
7.91868e+06
7.91953e+06
7.92036e+06
7.9211e+06
7.92171e+06
7.92213e+06
7.92235e+06
7.92235e+06
7.92213e+06
7.92171e+06
7.9211e+06
7.92036e+06
7.91953e+06
7.91868e+06
7.91788e+06
7.91732e+06
7.92162e+06
7.96079e+06
7.95636e+06
7.95689e+06
7.9576e+06
7.95835e+06
7.95908e+06
7.95973e+06
7.96026e+06
7.96063e+06
7.96081e+06
7.96081e+06
7.96063e+06
7.96026e+06
7.95973e+06
7.95908e+06
7.95835e+06
7.9576e+06
7.95689e+06
7.95636e+06
7.96079e+06
7.85946e+06
7.85347e+06
7.85419e+06
7.85517e+06
7.85621e+06
7.85722e+06
7.85811e+06
7.85884e+06
7.85934e+06
7.85961e+06
7.85961e+06
7.85934e+06
7.85884e+06
7.85811e+06
7.85722e+06
7.85621e+06
7.85517e+06
7.85419e+06
7.85347e+06
7.85946e+06
7.93672e+06
7.93154e+06
7.93213e+06
7.93296e+06
7.93383e+06
7.93468e+06
7.93543e+06
7.93604e+06
7.93647e+06
7.93668e+06
7.93668e+06
7.93647e+06
7.93604e+06
7.93543e+06
7.93468e+06
7.93383e+06
7.93296e+06
7.93213e+06
7.93154e+06
7.93672e+06
7.70379e+06
7.69482e+06
7.6958e+06
7.69711e+06
7.69847e+06
7.69978e+06
7.70093e+06
7.70186e+06
7.7025e+06
7.70283e+06
7.70283e+06
7.7025e+06
7.70186e+06
7.70093e+06
7.69978e+06
7.69847e+06
7.69711e+06
7.6958e+06
7.69482e+06
7.70379e+06
8.0179e+06
8.01615e+06
8.01639e+06
8.01675e+06
8.01713e+06
8.0175e+06
8.01782e+06
8.01809e+06
8.01828e+06
8.01837e+06
8.01837e+06
8.01828e+06
8.01809e+06
8.01782e+06
8.0175e+06
8.01713e+06
8.01675e+06
8.01639e+06
8.01615e+06
8.0179e+06
7.25639e+06
7.24541e+06
7.24655e+06
7.24816e+06
7.24984e+06
7.25144e+06
7.25285e+06
7.25398e+06
7.25475e+06
7.25515e+06
7.25515e+06
7.25475e+06
7.25397e+06
7.25285e+06
7.25144e+06
7.24984e+06
7.24816e+06
7.24656e+06
7.24542e+06
7.25642e+06
6.69602e+06
6.68926e+06
6.69018e+06
6.69147e+06
6.69285e+06
6.6942e+06
6.6954e+06
6.69638e+06
6.69706e+06
6.6974e+06
6.6974e+06
6.69705e+06
6.69637e+06
6.6954e+06
6.6942e+06
6.69285e+06
6.69147e+06
6.69018e+06
6.68926e+06
6.69603e+06
8.00702e+06
8.00467e+06
8.00498e+06
8.00541e+06
8.00587e+06
8.00631e+06
8.00671e+06
8.00703e+06
8.00725e+06
8.00737e+06
8.00737e+06
8.00725e+06
8.00703e+06
8.00671e+06
8.00631e+06
8.00587e+06
8.00541e+06
8.00498e+06
8.00467e+06
8.00702e+06
7.99401e+06
7.99113e+06
7.99151e+06
7.99205e+06
7.99263e+06
7.99319e+06
7.9937e+06
7.99411e+06
7.9944e+06
7.99455e+06
7.99455e+06
7.9944e+06
7.99411e+06
7.9937e+06
7.99319e+06
7.99263e+06
7.99205e+06
7.99151e+06
7.99113e+06
7.99401e+06
7.66278e+06
7.65509e+06
7.65603e+06
7.65731e+06
7.65866e+06
7.65996e+06
7.66111e+06
7.66204e+06
7.66269e+06
7.66302e+06
7.66302e+06
7.66269e+06
7.66204e+06
7.66111e+06
7.65996e+06
7.65866e+06
7.65731e+06
7.65603e+06
7.65509e+06
7.66279e+06
7.49375e+06
7.48503e+06
7.48605e+06
7.48741e+06
7.48885e+06
7.49023e+06
7.49145e+06
7.49244e+06
7.49313e+06
7.49348e+06
7.49348e+06
7.49313e+06
7.49244e+06
7.49145e+06
7.49023e+06
7.48884e+06
7.48741e+06
7.48605e+06
7.48503e+06
7.49374e+06
6.84855e+06
6.83967e+06
6.84076e+06
6.84222e+06
6.84377e+06
6.84526e+06
6.84658e+06
6.84763e+06
6.84837e+06
6.84874e+06
6.84874e+06
6.84835e+06
6.8476e+06
6.84653e+06
6.8452e+06
6.84371e+06
6.84216e+06
6.84069e+06
6.83961e+06
6.84844e+06
7.95729e+06
7.95295e+06
7.95347e+06
7.95418e+06
7.95494e+06
7.95567e+06
7.95632e+06
7.95685e+06
7.95723e+06
7.95742e+06
7.95742e+06
7.95723e+06
7.95685e+06
7.95632e+06
7.95567e+06
7.95494e+06
7.95418e+06
7.95347e+06
7.95295e+06
7.95729e+06
7.91224e+06
7.9087e+06
7.90922e+06
7.90997e+06
7.91078e+06
7.91157e+06
7.91229e+06
7.91287e+06
7.91328e+06
7.91349e+06
7.91349e+06
7.91328e+06
7.91287e+06
7.91229e+06
7.91157e+06
7.91078e+06
7.90997e+06
7.90922e+06
7.9087e+06
7.91224e+06
7.83219e+06
7.82764e+06
7.82829e+06
7.8292e+06
7.83017e+06
7.83113e+06
7.83198e+06
7.83268e+06
7.83317e+06
7.83342e+06
7.83342e+06
7.83317e+06
7.83268e+06
7.83198e+06
7.83113e+06
7.83017e+06
7.8292e+06
7.82829e+06
7.82764e+06
7.83219e+06
7.76028e+06
7.75347e+06
7.75425e+06
7.75537e+06
7.75654e+06
7.75769e+06
7.75871e+06
7.75953e+06
7.76011e+06
7.7604e+06
7.7604e+06
7.76011e+06
7.75953e+06
7.75871e+06
7.75769e+06
7.75655e+06
7.75537e+06
7.75425e+06
7.75347e+06
7.76028e+06
8.02161e+06
8.02044e+06
8.02062e+06
8.0209e+06
8.0212e+06
8.0215e+06
8.02177e+06
8.02199e+06
8.02214e+06
8.02222e+06
8.02222e+06
8.02214e+06
8.02199e+06
8.02177e+06
8.0215e+06
8.0212e+06
8.0209e+06
8.02062e+06
8.02044e+06
8.02161e+06
6.58517e+06
6.58201e+06
6.58273e+06
6.58383e+06
6.58504e+06
6.58623e+06
6.58731e+06
6.58818e+06
6.5888e+06
6.58912e+06
6.58911e+06
6.58879e+06
6.58817e+06
6.5873e+06
6.58622e+06
6.58502e+06
6.58382e+06
6.58271e+06
6.58199e+06
6.58514e+06
5.23456e+06
5.23458e+06
5.23459e+06
5.23459e+06
5.2346e+06
5.23461e+06
5.23462e+06
5.23463e+06
5.23463e+06
5.23464e+06
5.23464e+06
5.23464e+06
5.23463e+06
5.23463e+06
5.23462e+06
5.23462e+06
5.23461e+06
5.2346e+06
5.2346e+06
5.23458e+06
5.17418e+06
5.17421e+06
5.17422e+06
5.17422e+06
5.17422e+06
5.17421e+06
5.17421e+06
5.17422e+06
5.17422e+06
5.17422e+06
5.17421e+06
5.17421e+06
5.17421e+06
5.17421e+06
5.17421e+06
5.17421e+06
5.17421e+06
5.17421e+06
5.1742e+06
5.17417e+06
5.3623e+06
5.36233e+06
5.36235e+06
5.36238e+06
5.36241e+06
5.36245e+06
5.36248e+06
5.36251e+06
5.36253e+06
5.36254e+06
5.36254e+06
5.36253e+06
5.36251e+06
5.36248e+06
5.36245e+06
5.36241e+06
5.36238e+06
5.36235e+06
5.36233e+06
5.36229e+06
5.46076e+06
5.46086e+06
5.46091e+06
5.46095e+06
5.46101e+06
5.46107e+06
5.46113e+06
5.46118e+06
5.46121e+06
5.46123e+06
5.46123e+06
5.46121e+06
5.46118e+06
5.46113e+06
5.46107e+06
5.46101e+06
5.46095e+06
5.46091e+06
5.46086e+06
5.46076e+06
6.19382e+06
6.18945e+06
6.19013e+06
6.19114e+06
6.19222e+06
6.19326e+06
6.1942e+06
6.19495e+06
6.19548e+06
6.19575e+06
6.19575e+06
6.19547e+06
6.19494e+06
6.19418e+06
6.19325e+06
6.1922e+06
6.19113e+06
6.19011e+06
6.18944e+06
6.19382e+06
6.06131e+06
6.06132e+06
6.06142e+06
6.0616e+06
6.06184e+06
6.06211e+06
6.06237e+06
6.06259e+06
6.06275e+06
6.06284e+06
6.06284e+06
6.06276e+06
6.0626e+06
6.06238e+06
6.06212e+06
6.06185e+06
6.06161e+06
6.06143e+06
6.06133e+06
6.06133e+06
5.79188e+06
5.79196e+06
5.79207e+06
5.79222e+06
5.79239e+06
5.79257e+06
5.79274e+06
5.79288e+06
5.79298e+06
5.79304e+06
5.79304e+06
5.79298e+06
5.79288e+06
5.79274e+06
5.79258e+06
5.7924e+06
5.79223e+06
5.79208e+06
5.79197e+06
5.79189e+06
6.11119e+06
6.11061e+06
6.11036e+06
6.11036e+06
6.1105e+06
6.11071e+06
6.11095e+06
6.11116e+06
6.11131e+06
6.1114e+06
6.1114e+06
6.11131e+06
6.11116e+06
6.11095e+06
6.11071e+06
6.11049e+06
6.11035e+06
6.11036e+06
6.1106e+06
6.11117e+06
5.53396e+06
5.534e+06
5.53404e+06
5.53411e+06
5.53418e+06
5.53426e+06
5.53433e+06
5.53439e+06
5.53444e+06
5.53446e+06
5.53446e+06
5.53444e+06
5.53439e+06
5.53433e+06
5.53425e+06
5.53418e+06
5.5341e+06
5.53404e+06
5.53399e+06
5.53396e+06
5.22807e+06
5.22809e+06
5.2281e+06
5.22811e+06
5.22811e+06
5.22812e+06
5.22813e+06
5.22814e+06
5.22814e+06
5.22815e+06
5.22815e+06
5.22815e+06
5.22815e+06
5.22814e+06
5.22814e+06
5.22813e+06
5.22813e+06
5.22813e+06
5.22812e+06
5.2281e+06
5.27865e+06
5.27865e+06
5.27866e+06
5.27867e+06
5.27868e+06
5.27869e+06
5.27871e+06
5.27872e+06
5.27872e+06
5.27873e+06
5.27873e+06
5.27872e+06
5.27871e+06
5.2787e+06
5.27869e+06
5.27868e+06
5.27866e+06
5.27865e+06
5.27865e+06
5.27864e+06
5.55375e+06
5.55432e+06
5.55456e+06
5.55481e+06
5.55512e+06
5.55544e+06
5.55576e+06
5.55602e+06
5.55621e+06
5.55631e+06
5.55631e+06
5.55621e+06
5.55602e+06
5.55576e+06
5.55545e+06
5.55512e+06
5.55482e+06
5.55456e+06
5.55432e+06
5.55376e+06
6.26012e+06
6.25593e+06
6.25665e+06
6.25774e+06
6.25891e+06
6.26004e+06
6.26106e+06
6.26189e+06
6.26246e+06
6.26276e+06
6.26276e+06
6.26246e+06
6.26188e+06
6.26106e+06
6.26004e+06
6.25891e+06
6.25774e+06
6.25665e+06
6.25593e+06
6.26012e+06
6.46937e+06
6.46674e+06
6.46741e+06
6.46845e+06
6.46961e+06
6.47076e+06
6.47179e+06
6.47264e+06
6.47323e+06
6.47354e+06
6.47354e+06
6.47323e+06
6.47264e+06
6.47179e+06
6.47076e+06
6.46961e+06
6.46846e+06
6.46741e+06
6.46675e+06
6.46938e+06
5.56535e+06
5.56541e+06
5.56549e+06
5.56558e+06
5.56569e+06
5.5658e+06
5.5659e+06
5.566e+06
5.56606e+06
5.5661e+06
5.5661e+06
5.56606e+06
5.566e+06
5.56591e+06
5.56581e+06
5.5657e+06
5.56559e+06
5.5655e+06
5.56542e+06
5.56536e+06
5.625e+06
5.62509e+06
5.62517e+06
5.62526e+06
5.62537e+06
5.62549e+06
5.6256e+06
5.62569e+06
5.62576e+06
5.6258e+06
5.6258e+06
5.62576e+06
5.62569e+06
5.62559e+06
5.62547e+06
5.62536e+06
5.62524e+06
5.62515e+06
5.62507e+06
5.62498e+06
5.1526e+06
5.15261e+06
5.15261e+06
5.1526e+06
5.1526e+06
5.1526e+06
5.15259e+06
5.15259e+06
5.15259e+06
5.15259e+06
5.15259e+06
5.15259e+06
5.15259e+06
5.15259e+06
5.15259e+06
5.1526e+06
5.1526e+06
5.1526e+06
5.1526e+06
5.1526e+06
5.51033e+06
5.51036e+06
5.5104e+06
5.51045e+06
5.51051e+06
5.51058e+06
5.51064e+06
5.51069e+06
5.51073e+06
5.51075e+06
5.51075e+06
5.51073e+06
5.51069e+06
5.51064e+06
5.51058e+06
5.51052e+06
5.51046e+06
5.5104e+06
5.51036e+06
5.51033e+06
5.37899e+06
5.37902e+06
5.37904e+06
5.37907e+06
5.3791e+06
5.37914e+06
5.37917e+06
5.3792e+06
5.37922e+06
5.37923e+06
5.37923e+06
5.37922e+06
5.3792e+06
5.37917e+06
5.37913e+06
5.3791e+06
5.37906e+06
5.37903e+06
5.37901e+06
5.37898e+06
5.48513e+06
5.48518e+06
5.48522e+06
5.48526e+06
5.48532e+06
5.48537e+06
5.48542e+06
5.48547e+06
5.4855e+06
5.48552e+06
5.48552e+06
5.4855e+06
5.48547e+06
5.48542e+06
5.48537e+06
5.48532e+06
5.48526e+06
5.48522e+06
5.48518e+06
5.48513e+06
6.09132e+06
6.091e+06
6.0909e+06
6.09098e+06
6.09117e+06
6.09142e+06
6.09167e+06
6.0919e+06
6.09207e+06
6.09216e+06
6.09216e+06
6.09207e+06
6.0919e+06
6.09168e+06
6.09142e+06
6.09118e+06
6.09099e+06
6.09091e+06
6.091e+06
6.09132e+06
5.19105e+06
5.19106e+06
5.19106e+06
5.19106e+06
5.19106e+06
5.19107e+06
5.19107e+06
5.19107e+06
5.19107e+06
5.19107e+06
5.19107e+06
5.19107e+06
5.19107e+06
5.19107e+06
5.19107e+06
5.19107e+06
5.19107e+06
5.19107e+06
5.19106e+06
5.19105e+06
5.71872e+06
5.71877e+06
5.71886e+06
5.71897e+06
5.7191e+06
5.71924e+06
5.71937e+06
5.71948e+06
5.71956e+06
5.7196e+06
5.7196e+06
5.71956e+06
5.71948e+06
5.71938e+06
5.71925e+06
5.71912e+06
5.71899e+06
5.71888e+06
5.7188e+06
5.71874e+06
5.39016e+06
5.3902e+06
5.39023e+06
5.39026e+06
5.3903e+06
5.39033e+06
5.39037e+06
5.3904e+06
5.39042e+06
5.39043e+06
5.39043e+06
5.39042e+06
5.3904e+06
5.39036e+06
5.39033e+06
5.39029e+06
5.39025e+06
5.39022e+06
5.39018e+06
5.39015e+06
5.41874e+06
5.41881e+06
5.41885e+06
5.41888e+06
5.41892e+06
5.41897e+06
5.41901e+06
5.41904e+06
5.41907e+06
5.41908e+06
5.41908e+06
5.41907e+06
5.41904e+06
5.419e+06
5.41896e+06
5.41892e+06
5.41888e+06
5.41884e+06
5.4188e+06
5.41874e+06
5.43893e+06
5.43899e+06
5.43903e+06
5.43907e+06
5.43912e+06
5.43916e+06
5.43921e+06
5.43925e+06
5.43928e+06
5.43929e+06
5.43929e+06
5.43928e+06
5.43925e+06
5.43921e+06
5.43916e+06
5.43912e+06
5.43907e+06
5.43903e+06
5.43899e+06
5.43893e+06
5.25135e+06
5.25137e+06
5.25138e+06
5.25139e+06
5.25139e+06
5.2514e+06
5.25141e+06
5.25142e+06
5.25143e+06
5.25143e+06
5.25143e+06
5.25143e+06
5.25142e+06
5.25142e+06
5.25141e+06
5.2514e+06
5.25139e+06
5.25139e+06
5.25138e+06
5.25136e+06
5.16159e+06
5.1616e+06
5.1616e+06
5.1616e+06
5.1616e+06
5.16159e+06
5.16159e+06
5.16159e+06
5.16159e+06
5.16159e+06
5.16159e+06
5.16159e+06
5.16159e+06
5.16159e+06
5.16159e+06
5.16159e+06
5.16159e+06
5.16159e+06
5.16159e+06
5.16158e+06
5.53994e+06
5.53997e+06
5.54002e+06
5.54009e+06
5.54018e+06
5.54027e+06
5.54036e+06
5.54043e+06
5.54048e+06
5.5405e+06
5.5405e+06
5.54048e+06
5.54043e+06
5.54036e+06
5.54027e+06
5.54018e+06
5.5401e+06
5.54003e+06
5.53997e+06
5.53994e+06
5.814e+06
5.81405e+06
5.81417e+06
5.81432e+06
5.81451e+06
5.81471e+06
5.81489e+06
5.81505e+06
5.81516e+06
5.81522e+06
5.81522e+06
5.81517e+06
5.81507e+06
5.81492e+06
5.81474e+06
5.81455e+06
5.81437e+06
5.81421e+06
5.8141e+06
5.81405e+06
5.80712e+06
5.80709e+06
5.8071e+06
5.80719e+06
5.80734e+06
5.80752e+06
5.8077e+06
5.80785e+06
5.80796e+06
5.80802e+06
5.80802e+06
5.80797e+06
5.80787e+06
5.80772e+06
5.80755e+06
5.80737e+06
5.80722e+06
5.80714e+06
5.80712e+06
5.80715e+06
5.34433e+06
5.34435e+06
5.34437e+06
5.34439e+06
5.34441e+06
5.34444e+06
5.34446e+06
5.34448e+06
5.3445e+06
5.3445e+06
5.34451e+06
5.3445e+06
5.34448e+06
5.34446e+06
5.34444e+06
5.34442e+06
5.34439e+06
5.34437e+06
5.34435e+06
5.34433e+06
6.00512e+06
6.00552e+06
6.00577e+06
6.00607e+06
6.00641e+06
6.00676e+06
6.00709e+06
6.00737e+06
6.00757e+06
6.00768e+06
6.00768e+06
6.00758e+06
6.00739e+06
6.00711e+06
6.00679e+06
6.00644e+06
6.0061e+06
6.0058e+06
6.00555e+06
6.00516e+06
5.18277e+06
5.18277e+06
5.18278e+06
5.18278e+06
5.18278e+06
5.18278e+06
5.18278e+06
5.18278e+06
5.18278e+06
5.18278e+06
5.18278e+06
5.18278e+06
5.18278e+06
5.18278e+06
5.18278e+06
5.18278e+06
5.18278e+06
5.18278e+06
5.18277e+06
5.18277e+06
6.38156e+06
6.37466e+06
6.37552e+06
6.37674e+06
6.37802e+06
6.37927e+06
6.38038e+06
6.38128e+06
6.38191e+06
6.38223e+06
6.38224e+06
6.38191e+06
6.38129e+06
6.38039e+06
6.37928e+06
6.37803e+06
6.37674e+06
6.37553e+06
6.37466e+06
6.38155e+06
5.20337e+06
5.20338e+06
5.20339e+06
5.2034e+06
5.2034e+06
5.2034e+06
5.20341e+06
5.20341e+06
5.20341e+06
5.20342e+06
5.20342e+06
5.20342e+06
5.20342e+06
5.20342e+06
5.20341e+06
5.20341e+06
5.20341e+06
5.20341e+06
5.2034e+06
5.20338e+06
5.6439e+06
5.64462e+06
5.64484e+06
5.64508e+06
5.64535e+06
5.64564e+06
5.64591e+06
5.64613e+06
5.64629e+06
5.64637e+06
5.64637e+06
5.64628e+06
5.64611e+06
5.64587e+06
5.6456e+06
5.6453e+06
5.64503e+06
5.64479e+06
5.64457e+06
5.64385e+06
5.35317e+06
5.35319e+06
5.35322e+06
5.35324e+06
5.35327e+06
5.3533e+06
5.35332e+06
5.35335e+06
5.35337e+06
5.35337e+06
5.35337e+06
5.35337e+06
5.35335e+06
5.35333e+06
5.3533e+06
5.35327e+06
5.35324e+06
5.35322e+06
5.3532e+06
5.35318e+06
6.14544e+06
6.14143e+06
6.14155e+06
6.14234e+06
6.1434e+06
6.14455e+06
6.14564e+06
6.14654e+06
6.14719e+06
6.14753e+06
6.14753e+06
6.14718e+06
6.14653e+06
6.14561e+06
6.14452e+06
6.14337e+06
6.14231e+06
6.14151e+06
6.14139e+06
6.14541e+06
5.31676e+06
5.31677e+06
5.31679e+06
5.3168e+06
5.31682e+06
5.31684e+06
5.31686e+06
5.31687e+06
5.31688e+06
5.31689e+06
5.31689e+06
5.31688e+06
5.31687e+06
5.31685e+06
5.31683e+06
5.31682e+06
5.3168e+06
5.31678e+06
5.31677e+06
5.31675e+06
5.331e+06
5.33101e+06
5.33102e+06
5.33104e+06
5.33106e+06
5.33108e+06
5.3311e+06
5.33112e+06
5.33113e+06
5.33114e+06
5.33114e+06
5.33113e+06
5.33112e+06
5.3311e+06
5.33108e+06
5.33106e+06
5.33104e+06
5.33103e+06
5.33101e+06
5.331e+06
5.54017e+06
5.54022e+06
5.54028e+06
5.54036e+06
5.54045e+06
5.54055e+06
5.54065e+06
5.54074e+06
5.5408e+06
5.54084e+06
5.54084e+06
5.5408e+06
5.54074e+06
5.54065e+06
5.54055e+06
5.54045e+06
5.54036e+06
5.54028e+06
5.54022e+06
5.54017e+06
5.30384e+06
5.30385e+06
5.30386e+06
5.30387e+06
5.30389e+06
5.3039e+06
5.30391e+06
5.30393e+06
5.30394e+06
5.30394e+06
5.30394e+06
5.30393e+06
5.30392e+06
5.30391e+06
5.3039e+06
5.30388e+06
5.30387e+06
5.30385e+06
5.30384e+06
5.30383e+06
5.75446e+06
5.75443e+06
5.75448e+06
5.75459e+06
5.75474e+06
5.75492e+06
5.75511e+06
5.75529e+06
5.75545e+06
5.75554e+06
5.75553e+06
5.75542e+06
5.75525e+06
5.75505e+06
5.75485e+06
5.75466e+06
5.75451e+06
5.75439e+06
5.75433e+06
5.75437e+06
5.66647e+06
5.66657e+06
5.66665e+06
5.66674e+06
5.66685e+06
5.66696e+06
5.66707e+06
5.66716e+06
5.66722e+06
5.66726e+06
5.66726e+06
5.66722e+06
5.66716e+06
5.66707e+06
5.66696e+06
5.66685e+06
5.66674e+06
5.66664e+06
5.66656e+06
5.66647e+06
5.54348e+06
5.54353e+06
5.54359e+06
5.54368e+06
5.54378e+06
5.54388e+06
5.54397e+06
5.54405e+06
5.54411e+06
5.54414e+06
5.54414e+06
5.54411e+06
5.54405e+06
5.54397e+06
5.54388e+06
5.54378e+06
5.54368e+06
5.54359e+06
5.54353e+06
5.54348e+06
5.7512e+06
5.75127e+06
5.75136e+06
5.75147e+06
5.7516e+06
5.75174e+06
5.75186e+06
5.75196e+06
5.75204e+06
5.75208e+06
5.75208e+06
5.75205e+06
5.75198e+06
5.75188e+06
5.75176e+06
5.75163e+06
5.75151e+06
5.7514e+06
5.75131e+06
5.75124e+06
5.54362e+06
5.54415e+06
5.54427e+06
5.54437e+06
5.5445e+06
5.54467e+06
5.54483e+06
5.54499e+06
5.54511e+06
5.54518e+06
5.54519e+06
5.54514e+06
5.54504e+06
5.5449e+06
5.54475e+06
5.5446e+06
5.54447e+06
5.54438e+06
5.54427e+06
5.54373e+06
5.52086e+06
5.52089e+06
5.52093e+06
5.52098e+06
5.52104e+06
5.52111e+06
5.52116e+06
5.52121e+06
5.52125e+06
5.52126e+06
5.52126e+06
5.52125e+06
5.52121e+06
5.52116e+06
5.52111e+06
5.52105e+06
5.52099e+06
5.52093e+06
5.52089e+06
5.52086e+06
5.21277e+06
5.21279e+06
5.2128e+06
5.2128e+06
5.2128e+06
5.21281e+06
5.21281e+06
5.21282e+06
5.21282e+06
5.21282e+06
5.21282e+06
5.21282e+06
5.21282e+06
5.21282e+06
5.21282e+06
5.21282e+06
5.21281e+06
5.21281e+06
5.2128e+06
5.21278e+06
5.26214e+06
5.26215e+06
5.26216e+06
5.26217e+06
5.26218e+06
5.26219e+06
5.26219e+06
5.2622e+06
5.26221e+06
5.26221e+06
5.26221e+06
5.26221e+06
5.2622e+06
5.2622e+06
5.26219e+06
5.26218e+06
5.26217e+06
5.26217e+06
5.26216e+06
5.26214e+06
5.36842e+06
5.36844e+06
5.36847e+06
5.3685e+06
5.36852e+06
5.36855e+06
5.36858e+06
5.3686e+06
5.36862e+06
5.36863e+06
5.36863e+06
5.36862e+06
5.3686e+06
5.36858e+06
5.36855e+06
5.36852e+06
5.36849e+06
5.36847e+06
5.36844e+06
5.36842e+06
5.53871e+06
5.53873e+06
5.53878e+06
5.53884e+06
5.53891e+06
5.53898e+06
5.53905e+06
5.53911e+06
5.53915e+06
5.53918e+06
5.53918e+06
5.53915e+06
5.53911e+06
5.53905e+06
5.53898e+06
5.53891e+06
5.53884e+06
5.53878e+06
5.53873e+06
5.5387e+06
6.33126e+06
6.32713e+06
6.32783e+06
6.32889e+06
6.33003e+06
6.33115e+06
6.33217e+06
6.33299e+06
6.33358e+06
6.33388e+06
6.33388e+06
6.33358e+06
6.333e+06
6.33217e+06
6.33116e+06
6.33003e+06
6.32888e+06
6.32782e+06
6.32713e+06
6.33125e+06
5.40037e+06
5.4004e+06
5.40043e+06
5.40047e+06
5.4005e+06
5.40053e+06
5.40057e+06
5.40059e+06
5.40061e+06
5.40062e+06
5.40062e+06
5.40061e+06
5.40059e+06
5.40056e+06
5.40053e+06
5.40049e+06
5.40046e+06
5.40042e+06
5.40039e+06
5.40036e+06
5.28943e+06
5.28944e+06
5.28945e+06
5.28946e+06
5.28947e+06
5.28948e+06
5.28949e+06
5.2895e+06
5.28951e+06
5.28951e+06
5.28951e+06
5.2895e+06
5.28949e+06
5.28948e+06
5.28947e+06
5.28946e+06
5.28945e+06
5.28944e+06
5.28943e+06
5.28942e+06
5.58132e+06
5.58139e+06
5.58147e+06
5.58155e+06
5.58164e+06
5.58173e+06
5.58182e+06
5.58189e+06
5.58194e+06
5.58197e+06
5.58197e+06
5.58195e+06
5.5819e+06
5.58183e+06
5.58174e+06
5.58165e+06
5.58156e+06
5.58148e+06
5.58141e+06
5.58134e+06
5.54896e+06
5.54901e+06
5.54908e+06
5.54917e+06
5.54927e+06
5.54937e+06
5.54947e+06
5.54955e+06
5.5496e+06
5.54963e+06
5.54963e+06
5.5496e+06
5.54955e+06
5.54948e+06
5.54938e+06
5.54928e+06
5.54918e+06
5.5491e+06
5.54903e+06
5.54897e+06
5.67952e+06
5.67974e+06
5.67982e+06
5.6799e+06
5.68e+06
5.68011e+06
5.68022e+06
5.68032e+06
5.6804e+06
5.68044e+06
5.68043e+06
5.68038e+06
5.68029e+06
5.68017e+06
5.68005e+06
5.67993e+06
5.67982e+06
5.67974e+06
5.67966e+06
5.67943e+06
5.7349e+06
5.735e+06
5.73503e+06
5.73505e+06
5.73506e+06
5.73508e+06
5.7351e+06
5.73512e+06
5.73513e+06
5.73514e+06
5.73514e+06
5.73513e+06
5.73512e+06
5.7351e+06
5.73508e+06
5.73506e+06
5.73504e+06
5.73503e+06
5.735e+06
5.73489e+06
5.18822e+06
5.18818e+06
5.18818e+06
5.18817e+06
5.18817e+06
5.18819e+06
5.18819e+06
5.18817e+06
5.18816e+06
5.18816e+06
5.18818e+06
5.18817e+06
5.18816e+06
5.18818e+06
5.1882e+06
5.1882e+06
5.1882e+06
5.18821e+06
5.18821e+06
5.18821e+06
5.69686e+06
5.69692e+06
5.69693e+06
5.69693e+06
5.69693e+06
5.69692e+06
5.69692e+06
5.69692e+06
5.69692e+06
5.69692e+06
5.69692e+06
5.69691e+06
5.69691e+06
5.69691e+06
5.69692e+06
5.69692e+06
5.69693e+06
5.69693e+06
5.69691e+06
5.69685e+06
5.12359e+06
5.12361e+06
5.12361e+06
5.12361e+06
5.12361e+06
5.1236e+06
5.1236e+06
5.1236e+06
5.1236e+06
5.12359e+06
5.12359e+06
5.1236e+06
5.1236e+06
5.1236e+06
5.12361e+06
5.12361e+06
5.12362e+06
5.12362e+06
5.12361e+06
5.12359e+06
5.14082e+06
5.14082e+06
5.14082e+06
5.14082e+06
5.14081e+06
5.14081e+06
5.14081e+06
5.1408e+06
5.1408e+06
5.1408e+06
5.1408e+06
5.1408e+06
5.1408e+06
5.1408e+06
5.14081e+06
5.14081e+06
5.14081e+06
5.14082e+06
5.14082e+06
5.14081e+06
6.06864e+06
6.06795e+06
6.06765e+06
6.06758e+06
6.06762e+06
6.0677e+06
6.06778e+06
6.06784e+06
6.06788e+06
6.06791e+06
6.06791e+06
6.06789e+06
6.06784e+06
6.06778e+06
6.06771e+06
6.06763e+06
6.0676e+06
6.06766e+06
6.06796e+06
6.06865e+06
5.56134e+06
5.56185e+06
5.56193e+06
5.56198e+06
5.56204e+06
5.56211e+06
5.56218e+06
5.56223e+06
5.56227e+06
5.56229e+06
5.56229e+06
5.56227e+06
5.56223e+06
5.56218e+06
5.56211e+06
5.56204e+06
5.56198e+06
5.56193e+06
5.56185e+06
5.56134e+06
6.07288e+06
6.07206e+06
6.07167e+06
6.07154e+06
6.07154e+06
6.07159e+06
6.07166e+06
6.07172e+06
6.07176e+06
6.07179e+06
6.07179e+06
6.07177e+06
6.07173e+06
6.07167e+06
6.07161e+06
6.07156e+06
6.07156e+06
6.07169e+06
6.07208e+06
6.0729e+06
5.44456e+06
5.44459e+06
5.44458e+06
5.44457e+06
5.44456e+06
5.44456e+06
5.44457e+06
5.44458e+06
5.44458e+06
5.44459e+06
5.44458e+06
5.44458e+06
5.44457e+06
5.44456e+06
5.44455e+06
5.44455e+06
5.44455e+06
5.44456e+06
5.44457e+06
5.44454e+06
5.59004e+06
5.59038e+06
5.59039e+06
5.59037e+06
5.59035e+06
5.59034e+06
5.59033e+06
5.59032e+06
5.59031e+06
5.5903e+06
5.5903e+06
5.5903e+06
5.59031e+06
5.59032e+06
5.59033e+06
5.59034e+06
5.59036e+06
5.59038e+06
5.59037e+06
5.59002e+06
5.12921e+06
5.12922e+06
5.12923e+06
5.12922e+06
5.12922e+06
5.12922e+06
5.12921e+06
5.12921e+06
5.12921e+06
5.12921e+06
5.12921e+06
5.12921e+06
5.12921e+06
5.12921e+06
5.12922e+06
5.12922e+06
5.12923e+06
5.12923e+06
5.12922e+06
5.12921e+06
5.80909e+06
5.8091e+06
5.80912e+06
5.80916e+06
5.80919e+06
5.80922e+06
5.80925e+06
5.80927e+06
5.80928e+06
5.80929e+06
5.80929e+06
5.80929e+06
5.80928e+06
5.80926e+06
5.80924e+06
5.80921e+06
5.80917e+06
5.80914e+06
5.80911e+06
5.80911e+06
5.84006e+06
5.83999e+06
5.84007e+06
5.84016e+06
5.84025e+06
5.84033e+06
5.8404e+06
5.84045e+06
5.84049e+06
5.84051e+06
5.84051e+06
5.84049e+06
5.84046e+06
5.84041e+06
5.84034e+06
5.84026e+06
5.84017e+06
5.84008e+06
5.84e+06
5.84007e+06
6.03073e+06
6.03026e+06
6.0302e+06
6.03022e+06
6.03026e+06
6.03031e+06
6.03035e+06
6.03038e+06
6.0304e+06
6.03041e+06
6.03041e+06
6.0304e+06
6.03038e+06
6.03035e+06
6.03031e+06
6.03026e+06
6.03022e+06
6.0302e+06
6.03027e+06
6.03073e+06
5.80464e+06
5.8046e+06
5.80461e+06
5.80463e+06
5.80466e+06
5.80469e+06
5.80472e+06
5.80474e+06
5.80476e+06
5.80477e+06
5.80477e+06
5.80476e+06
5.80474e+06
5.80472e+06
5.80469e+06
5.80466e+06
5.80463e+06
5.80461e+06
5.8046e+06
5.80464e+06
5.12526e+06
5.12532e+06
5.12533e+06
5.12532e+06
5.12532e+06
5.12531e+06
5.12531e+06
5.12531e+06
5.12531e+06
5.12531e+06
5.12531e+06
5.12531e+06
5.12532e+06
5.12532e+06
5.12532e+06
5.12533e+06
5.12533e+06
5.12534e+06
5.12534e+06
5.12528e+06
5.84223e+06
5.84217e+06
5.84217e+06
5.8422e+06
5.84224e+06
5.84229e+06
5.84233e+06
5.84236e+06
5.84239e+06
5.8424e+06
5.8424e+06
5.84239e+06
5.84237e+06
5.84234e+06
5.8423e+06
5.84225e+06
5.84221e+06
5.84219e+06
5.84219e+06
5.84225e+06
5.48971e+06
5.48952e+06
5.4895e+06
5.48949e+06
5.48947e+06
5.48946e+06
5.48946e+06
5.48945e+06
5.48945e+06
5.48945e+06
5.48945e+06
5.48945e+06
5.48945e+06
5.48946e+06
5.48947e+06
5.48948e+06
5.48949e+06
5.4895e+06
5.48952e+06
5.48971e+06
5.35653e+06
5.35663e+06
5.35664e+06
5.35664e+06
5.35664e+06
5.35665e+06
5.35666e+06
5.35668e+06
5.35669e+06
5.3567e+06
5.3567e+06
5.35669e+06
5.35668e+06
5.35666e+06
5.35664e+06
5.35663e+06
5.35663e+06
5.35663e+06
5.35662e+06
5.35652e+06
5.37978e+06
5.37983e+06
5.37984e+06
5.37984e+06
5.37984e+06
5.37985e+06
5.37987e+06
5.37988e+06
5.3799e+06
5.37991e+06
5.37991e+06
5.3799e+06
5.37988e+06
5.37987e+06
5.37985e+06
5.37984e+06
5.37984e+06
5.37984e+06
5.37983e+06
5.37978e+06
5.64536e+06
5.64533e+06
5.64532e+06
5.64531e+06
5.64529e+06
5.64528e+06
5.64527e+06
5.64526e+06
5.64526e+06
5.64526e+06
5.64526e+06
5.64526e+06
5.64526e+06
5.64527e+06
5.64528e+06
5.64529e+06
5.6453e+06
5.64532e+06
5.64533e+06
5.64536e+06
5.6766e+06
5.6767e+06
5.67674e+06
5.67675e+06
5.67675e+06
5.67675e+06
5.67675e+06
5.67676e+06
5.67676e+06
5.67676e+06
5.67676e+06
5.67676e+06
5.67675e+06
5.67675e+06
5.67675e+06
5.67675e+06
5.67674e+06
5.67674e+06
5.6767e+06
5.67659e+06
5.40703e+06
5.40723e+06
5.40727e+06
5.40728e+06
5.40729e+06
5.40731e+06
5.40733e+06
5.40735e+06
5.40736e+06
5.40737e+06
5.40737e+06
5.40736e+06
5.40735e+06
5.40733e+06
5.40731e+06
5.40729e+06
5.40728e+06
5.40727e+06
5.40723e+06
5.40703e+06
6.02373e+06
6.02417e+06
6.02421e+06
6.02425e+06
6.0243e+06
6.02434e+06
6.02438e+06
6.02441e+06
6.02444e+06
6.02445e+06
6.02445e+06
6.02444e+06
6.02442e+06
6.02439e+06
6.02435e+06
6.0243e+06
6.02425e+06
6.02421e+06
6.02418e+06
6.02374e+06
5.67592e+06
5.67613e+06
5.67615e+06
5.67614e+06
5.67613e+06
5.67613e+06
5.67613e+06
5.67613e+06
5.67613e+06
5.67613e+06
5.67613e+06