/*--------------------------------*- C++ -*----------------------------------*\
| =========                 |                                                 |
| \\      /  F ield         | OpenFOAM: The Open Source CFD Toolbox           |
|  \\    /   O peration     | Version:  4.1                                   |
|   \\  /    A nd           | Web:      www.OpenFOAM.org                      |
|    \\/     M anipulation  |                                                 |
\*---------------------------------------------------------------------------*/
FoamFile
{
    version     2.0;
    format      ascii;
    class       volScalarField;
    location    "0.019";
    object      qual;
}
// * * * * * * * * * * * * * * * * * * * * * * * * * * * * * * * * * * * * * //

dimensions      [0 0 0 0 0 0 0];

internalField   nonuniform List<scalar> 
278640
(
0
0
0
0
0
0
0
0
0
0
0
0
0
0
0
0
0
0
0
0
0
0
0
0
0
0
0
0
0
0
0
0
0
0
0
0
0
0
0
0
0
0
0
0
0
0
0
0
0
0
0
0
0
0
0
0
0
0
0
0
0
0
0
0
0
0
0
0
0
0
0
0
0
0
0
0
0
0
0
0
0
0
0
0
0
0
0
0
0
0
0
0
0
0
0
0
0
0
0
0
0
0
0
0
0
0
0
0
0
0
0
0
0
0
0
0
0
0
0
0
0
0
0
0
0
0
0
0
0
0
0
0
0
0
0
0
0
0
0
0
0
0
0
0
0
0
0
0
0
0
0
0
0
0
0
0
0
0
0
0
0
0
0
0
0
0
0
0
0
0
0
0
0
0
0
0
0
0
0
0
0
0
0
0
0
0
0
0
0
0
0
0
0
0
0
0
0
0
0
0
0
0
0
0
0
0
0
0
0
0
0
0
0
0
0
0
0
0
0
0
0
0
0
0
0
0
0
0
0
0
0
0
0
0
0
0
0
0
0
0
0
0
0
0
0
0
0
0
0
0
0
0
0
0
0
0
0
0
0
0
0
0
0
0
0
0
0
0
0
0
0
0
0
0
0
0
0
0
0
0
0
0
0
0
0
0
0
0
0
0
0
0
0
0
0
0
0
0
0
0
0
0
0
0
0
0
0
0
0
0
0
0
0
0
0
0
0
0
0
0
0
0
0
0
0
0
0
0
0
0
0
0
0
0
0
0
0
0
0
0
0
0
0
0
0
0
0
0
0
0
0
0
0
0
0
0
0
0
0
0
0
0
0
0
0
0
0
0
0
0
0
0
0
0
0
0
0
0
0
0
0
0
0
0
0
0
0
0
0
0
0
0
0
0
0
0
0
0
0
0
0
0
0
0
0
0
0
0
0
0
0
0
0
0
0
0
0
0
0
0
0
0
0
0
0
0
0
0
0
0
0
0
0
0
0
0
0
0
0
0
0
0
0
0
0
0
0
0
0
0
0
0
0
0
0
0
0
0
0
0
0
0
0
0
0
0
0
0
0
0
0
0
0
0
0
0
0
0
0
0
0
0
0
0
0
0
0
0
0
0
0
0
0
0
0
0
0
0
0
0
0
0
0
0
0
0
0
0
0
0
0
0
0
0
0
0
0
0
0
0
0
0
0
0
0
0
0
0
0
0
0
0
0
0
0
0
0
0
0
0
0
0
0
0
0
0
0
0
0
0
0
0
0
0
0
0
0
0
0
0
0
0
0
0
0
0
0
0
0
0
0
0
0
0
0
0
0
0
0
0
0
0
0
0
0
0
0
0
0
0
0
0
0
0
0
0
0
0
0
0
0
0
0
0
0
0
0
0
0
0
0
0
0
0
0
0
0
0
0
0
0
0
0
0
0
0
0
0
0
0
0
0
0
0
0
0
0
0
0
0
0
0
0
0
0
0
0
0
0
0
0
0
0
0
0
0
0
0
0
0
0
0
0
0
0
0
0
0
0
0
0
0
0
0
0
0
0
0
0
0
0
0
0
0
0
0
0
0
0
0
0
0
0
0
0
0
0
0
0
0
0
0
0
0
0
0
0
0
0
0
0
0
0
0
0
0
0
0
0
0
0
0
0
0
0
0
0
0
0
0
0
0
0
0
0
0
0
0
0
0
0
0
0
0
0
0
0
0
0
0
0
0
0
0
0
0
0
0
0
0
0
0
0
0
0
0
0
0
0
0
0
0
0
0
0
0
0
0
0
0
0.123759
0.123757
0.123756
0.123755
0.123754
0.123753
0.123752
0.123751
0.12375
0.12375
0.12375
0.12375
0.12375
0.123751
0.123752
0.123753
0.123753
0.123754
0.123755
0.123757
0.130067
0.130063
0.130063
0.130062
0.130062
0.130062
0.130062
0.130062
0.130062
0.130062
0.130062
0.130062
0.130063
0.130063
0.130063
0.130063
0.130063
0.130063
0.130064
0.130068
0.109818
0.109814
0.10981
0.109807
0.109803
0.109798
0.109794
0.109791
0.109788
0.109786
0.109786
0.109788
0.109791
0.109794
0.109798
0.109803
0.109807
0.10981
0.109814
0.109818
0.0984066
0.0983944
0.0983879
0.0983816
0.0983745
0.0983669
0.0983595
0.0983531
0.0983484
0.0983459
0.0983459
0.0983484
0.0983531
0.0983595
0.0983669
0.0983746
0.0983817
0.098388
0.0983945
0.0984067
0
0
0
0
0
0
0
0
0
0
0
0
0
0
0
0
0
0
0
0
0.0115438
0.0115433
0.0115258
0.0114927
0.0114487
0.0113999
0.0113524
0.0113116
0.0112819
0.0112662
0.011266
0.0112812
0.0113104
0.0113508
0.0113981
0.0114468
0.0114908
0.0115239
0.0115416
0.0115424
0.054957
0.0549448
0.0549274
0.0549046
0.0548784
0.0548511
0.0548255
0.0548039
0.0547883
0.0547802
0.0547802
0.0547884
0.0548039
0.0548256
0.0548512
0.0548785
0.0549048
0.0549276
0.054945
0.0549573
0.00243221
0.00254267
0.00258983
0.00259176
0.00256525
0.00252424
0.00247967
0.00243967
0.00240997
0.00239419
0.00239411
0.00240976
0.00243939
0.00247943
0.00252416
0.00256544
0.00259237
0.00259106
0.00254483
0.00243588
0.0895567
0.0895521
0.0895454
0.0895367
0.0895265
0.0895159
0.0895057
0.0894971
0.0894908
0.0894875
0.0894875
0.0894908
0.0894971
0.0895057
0.0895159
0.0895266
0.0895368
0.0895456
0.0895522
0.0895569
0.12444
0.124437
0.124436
0.124435
0.124435
0.124434
0.124433
0.124432
0.124431
0.12443
0.12443
0.12443
0.124431
0.124431
0.124432
0.124433
0.124433
0.124434
0.124435
0.124437
0.119036
0.119035
0.119034
0.119033
0.119032
0.11903
0.119029
0.119027
0.119027
0.119026
0.119026
0.119027
0.119028
0.119029
0.119031
0.119033
0.119034
0.119035
0.119036
0.119037
0.0870247
0.0869487
0.0869177
0.0868847
0.0868456
0.0868035
0.0867633
0.0867292
0.0867047
0.0866918
0.0866919
0.0867048
0.0867294
0.0867635
0.0868038
0.0868459
0.0868851
0.0869181
0.0869493
0.0870251
0
0
0
0
0
0
0
0
0
0
0
0
0
0
0
0
0
0
0
0
0
0
0
0
0
0
0
0
0
0
0
0
0
0
0
0
0
0
0
0
0.0855976
0.0855889
0.0855785
0.0855656
0.0855509
0.0855354
0.0855206
0.0855079
0.0854988
0.0854939
0.0854937
0.0854983
0.0855071
0.0855195
0.085534
0.0855494
0.085564
0.0855767
0.0855871
0.0855958
0.0779368
0.0779242
0.0779133
0.0779003
0.077885
0.0778688
0.0778532
0.0778399
0.0778302
0.0778252
0.0778254
0.0778308
0.0778408
0.0778544
0.0778704
0.0778869
0.0779024
0.0779156
0.0779266
0.0779393
0.132278
0.132278
0.132278
0.132278
0.132278
0.132279
0.132279
0.132279
0.13228
0.13228
0.13228
0.13228
0.13228
0.132279
0.132279
0.132279
0.132278
0.132278
0.132278
0.132278
0.092439
0.0924344
0.0924288
0.0924218
0.0924136
0.0924051
0.0923969
0.0923899
0.0923848
0.0923821
0.0923821
0.0923848
0.0923899
0.0923969
0.0924051
0.0924137
0.0924218
0.0924288
0.0924344
0.092439
0.107915
0.107911
0.107908
0.107904
0.1079
0.107896
0.107891
0.107888
0.107885
0.107884
0.107884
0.107885
0.107888
0.107892
0.107896
0.107901
0.107905
0.107909
0.107912
0.107916
0.095486
0.0954801
0.0954747
0.0954686
0.0954616
0.0954543
0.0954473
0.0954413
0.0954369
0.0954347
0.0954347
0.095437
0.0954414
0.0954475
0.0954545
0.0954618
0.0954688
0.095475
0.0954804
0.0954863
0.00610991
0.00617175
0.00618961
0.00617516
0.00613972
0.00609364
0.00604585
0.00600362
0.00597239
0.00595579
0.00595566
0.005972
0.00600303
0.00604515
0.00609293
0.00613911
0.00617479
0.00618964
0.00617238
0.00611139
0.128321
0.12832
0.12832
0.128319
0.128319
0.128319
0.128319
0.128319
0.128319
0.128318
0.128318
0.128318
0.128318
0.128319
0.128319
0.128319
0.128319
0.128319
0.12832
0.128321
0.0653292
0.065321
0.0653084
0.065292
0.0652729
0.0652528
0.0652337
0.0652174
0.0652055
0.0651992
0.065199
0.065205
0.0652164
0.0652324
0.0652512
0.0652711
0.06529
0.0653062
0.0653187
0.0653269
0.106643
0.106638
0.106634
0.10663
0.106625
0.10662
0.106616
0.106612
0.106609
0.106607
0.106607
0.106609
0.106612
0.106616
0.106621
0.106626
0.106631
0.106636
0.10664
0.106645
0.103345
0.103336
0.103331
0.103326
0.103321
0.103315
0.10331
0.103305
0.103302
0.1033
0.1033
0.103302
0.103306
0.10331
0.103316
0.103321
0.103327
0.103332
0.103337
0.103345
0.100982
0.100973
0.100968
0.100963
0.100957
0.100951
0.100945
0.10094
0.100936
0.100934
0.100934
0.100936
0.10094
0.100945
0.100951
0.100957
0.100963
0.100968
0.100973
0.100982
0.121968
0.121966
0.121965
0.121964
0.121963
0.121962
0.12196
0.121959
0.121959
0.121958
0.121958
0.121958
0.121959
0.12196
0.121961
0.121962
0.121963
0.121964
0.121965
0.121967
0.131361
0.13136
0.131359
0.131359
0.131359
0.131359
0.13136
0.13136
0.13136
0.13136
0.13136
0.13136
0.13136
0.13136
0.13136
0.13136
0.13136
0.13136
0.13136
0.131361
0.0888452
0.0888402
0.0888327
0.0888226
0.0888103
0.0887973
0.0887849
0.0887747
0.0887677
0.0887641
0.0887641
0.0887675
0.0887744
0.0887845
0.0887967
0.0888098
0.088822
0.0888321
0.0888396
0.0888446
0.0517199
0.0517118
0.0516942
0.0516691
0.0516394
0.0516083
0.0515789
0.051554
0.051536
0.0515264
0.0515258
0.0515344
0.0515514
0.0515754
0.0516041
0.0516346
0.0516638
0.0516886
0.051706
0.051714
0.052823
0.0528287
0.0528263
0.0528125
0.0527889
0.0527598
0.0527306
0.0527056
0.0526879
0.0526787
0.0526783
0.0526867
0.0527036
0.0527278
0.0527564
0.052785
0.0528082
0.0528218
0.052824
0.052818
0.111838
0.111835
0.111833
0.11183
0.111827
0.111823
0.11182
0.111818
0.111816
0.111815
0.111815
0.111816
0.111818
0.11182
0.111823
0.111826
0.111829
0.111832
0.111834
0.111837
0.0213453
0.0212756
0.0212319
0.0211799
0.0211204
0.0210589
0.0210011
0.0209525
0.0209174
0.020899
0.0208986
0.0209165
0.0209509
0.020999
0.0210563
0.0211175
0.0211767
0.0212284
0.0212719
0.0213419
0.12918
0.129179
0.129179
0.129179
0.129179
0.129179
0.129179
0.129179
0.129179
0.129179
0.129179
0.129179
0.129179
0.129179
0.129179
0.129179
0.129179
0.129179
0.129179
0.12918
0
0
0
0
0
0
0
0
0
0
0
0
0
0
0
0
0
0
0
0
0.127042
0.12704
0.127039
0.127038
0.127038
0.127037
0.127037
0.127037
0.127036
0.127036
0.127036
0.127036
0.127036
0.127036
0.127036
0.127036
0.127037
0.127037
0.127038
0.12704
0.0754168
0.0753173
0.0752874
0.0752565
0.0752199
0.0751815
0.0751454
0.0751152
0.0750937
0.0750829
0.0750836
0.0750959
0.0751188
0.0751502
0.0751874
0.0752266
0.0752637
0.075295
0.0753248
0.0754244
0.110847
0.110844
0.110841
0.110838
0.110834
0.110831
0.110827
0.110824
0.110822
0.110821
0.110821
0.110822
0.110824
0.110827
0.11083
0.110834
0.110838
0.110841
0.110844
0.110847
0
0
0
0
0
0
0
0
0
0
0
0
0
0
0
0
0
0
0
0
0.114886
0.114884
0.114882
0.11488
0.114878
0.114876
0.114873
0.114871
0.11487
0.114869
0.114869
0.11487
0.114871
0.114874
0.114876
0.114878
0.11488
0.114882
0.114884
0.114886
0.113304
0.113302
0.1133
0.113298
0.113295
0.113292
0.11329
0.113288
0.113286
0.113285
0.113285
0.113286
0.113288
0.11329
0.113292
0.113295
0.113297
0.1133
0.113302
0.113303
0.0888133
0.0888063
0.0887978
0.088787
0.0887739
0.0887596
0.0887454
0.0887331
0.0887241
0.0887193
0.0887193
0.0887241
0.0887331
0.0887455
0.0887597
0.0887741
0.0887872
0.088798
0.0888067
0.0888137
0.116298
0.116297
0.116295
0.116294
0.116292
0.11629
0.116289
0.116287
0.116286
0.116285
0.116286
0.116286
0.116287
0.116289
0.116291
0.116293
0.116294
0.116296
0.116298
0.116299
0.0604843
0.0604895
0.0604814
0.060464
0.0604407
0.0604134
0.0603843
0.060356
0.0603317
0.060317
0.0603182
0.060335
0.0603613
0.0603915
0.0604222
0.0604509
0.0604753
0.0604936
0.0605021
0.0604968
0.0724501
0.0724364
0.0724242
0.0724104
0.0723949
0.0723787
0.0723633
0.0723504
0.0723411
0.0723363
0.0723364
0.0723414
0.0723509
0.072364
0.0723795
0.0723958
0.0724115
0.0724254
0.0724376
0.0724514
0.088377
0.0883701
0.0883605
0.0883483
0.0883342
0.0883196
0.088306
0.0882946
0.0882864
0.0882822
0.0882822
0.0882864
0.0882946
0.088306
0.0883197
0.0883343
0.0883485
0.0883608
0.0883705
0.0883775
0.0608069
0.0607962
0.0607823
0.0607649
0.0607451
0.0607247
0.0607056
0.0606896
0.060678
0.0606718
0.0606714
0.0606768
0.0606876
0.0607029
0.0607213
0.0607412
0.0607605
0.0607775
0.0607911
0.0608018
0.0883949
0.0883243
0.0883086
0.088295
0.0882762
0.0882543
0.0882318
0.0882112
0.0881951
0.0881858
0.0881846
0.0881916
0.0882055
0.0882241
0.0882449
0.0882655
0.0882832
0.088296
0.0883113
0.0883814
0.0911754
0.0911712
0.0911653
0.0911579
0.0911495
0.0911409
0.0911328
0.091126
0.0911211
0.0911186
0.0911186
0.0911211
0.0911259
0.0911326
0.0911407
0.0911493
0.0911576
0.091165
0.091171
0.0911752
0.12605
0.126048
0.126047
0.126046
0.126046
0.126045
0.126045
0.126045
0.126044
0.126044
0.126044
0.126044
0.126044
0.126044
0.126044
0.126045
0.126045
0.126046
0.126047
0.126049
0.120822
0.120821
0.12082
0.120819
0.120818
0.120817
0.120816
0.120815
0.120814
0.120814
0.120814
0.120814
0.120815
0.120815
0.120816
0.120817
0.120818
0.120819
0.120821
0.120822
0.109129
0.109126
0.109123
0.109119
0.109116
0.109112
0.109108
0.109105
0.109103
0.109102
0.109102
0.109103
0.109105
0.109108
0.109112
0.109116
0.10912
0.109123
0.109126
0.109129
0.0889896
0.0889857
0.0889792
0.0889704
0.0889602
0.0889496
0.0889396
0.0889312
0.0889251
0.0889219
0.0889218
0.0889249
0.088931
0.0889394
0.0889493
0.08896
0.0889702
0.088979
0.0889856
0.0889896
0
0
0
0
0
0
0
0
0
0
0
0
0
0
0
0
0
0
0
0
0.105464
0.105459
0.105455
0.105451
0.105446
0.105442
0.105437
0.105434
0.105431
0.10543
0.10543
0.105431
0.105434
0.105438
0.105442
0.105447
0.105452
0.105456
0.10546
0.105465
0.117883
0.117882
0.117881
0.117879
0.117878
0.117877
0.117876
0.117874
0.117874
0.117873
0.117873
0.117874
0.117875
0.117876
0.117878
0.117879
0.117881
0.117882
0.117883
0.117884
0.083591
0.0835809
0.0835704
0.0835586
0.0835457
0.0835325
0.0835203
0.0835101
0.0835029
0.0834991
0.0834989
0.0835024
0.0835093
0.0835192
0.0835311
0.0835441
0.0835568
0.0835684
0.0835788
0.083589
0.0876864
0.0876789
0.0876689
0.0876565
0.0876423
0.0876277
0.0876142
0.087603
0.0875952
0.0875911
0.0875909
0.0875947
0.0876023
0.0876132
0.0876265
0.0876409
0.087655
0.0876675
0.0876775
0.087685
0.07083
0.0707973
0.0707856
0.0707746
0.0707599
0.0707433
0.0707266
0.0707119
0.0707011
0.0706957
0.0706967
0.070704
0.0707166
0.070733
0.0707512
0.0707691
0.0707848
0.0707966
0.0708088
0.0708415
0.0659247
0.0659089
0.0659035
0.0659003
0.065897
0.0658934
0.0658898
0.0658866
0.0658842
0.0658829
0.0658829
0.0658842
0.0658865
0.0658897
0.0658933
0.0658968
0.0659
0.0659032
0.0659086
0.0659244
0.128731
0.128736
0.128736
0.128737
0.128738
0.128735
0.128735
0.128737
0.128738
0.128738
0.128736
0.128737
0.128738
0.128736
0.128734
0.128735
0.128735
0.128734
0.128734
0.128733
0.0754227
0.0754134
0.0754097
0.0754085
0.0754081
0.0754076
0.0754067
0.0754056
0.0754047
0.0754043
0.0754044
0.0754052
0.0754064
0.0754077
0.0754089
0.0754097
0.0754103
0.0754116
0.0754154
0.0754247
0.135235
0.135233
0.135232
0.135232
0.135233
0.135233
0.135234
0.135234
0.135234
0.135234
0.135234
0.135234
0.135234
0.135233
0.135233
0.135232
0.135232
0.135232
0.135232
0.135235
0.133475
0.133475
0.133475
0.133475
0.133475
0.133475
0.133476
0.133476
0.133477
0.133477
0.133477
0.133477
0.133477
0.133476
0.133476
0.133475
0.133475
0.133475
0.133475
0.133475
0.0107552
0.010886
0.0109432
0.0109556
0.0109479
0.0109336
0.0109191
0.0109071
0.0108987
0.0108944
0.0108943
0.0108982
0.0109062
0.0109179
0.0109322
0.0109462
0.0109536
0.010941
0.0108837
0.0107527
0.0863989
0.086332
0.0863225
0.0863159
0.086308
0.0862994
0.0862911
0.086284
0.0862789
0.0862762
0.0862763
0.0862789
0.0862841
0.0862911
0.0862995
0.0863081
0.086316
0.0863226
0.0863321
0.086399
0.00994098
0.0100947
0.0101681
0.0101926
0.0101928
0.0101828
0.0101701
0.0101586
0.0101501
0.0101456
0.0101453
0.0101493
0.0101572
0.0101682
0.0101804
0.01019
0.0101894
0.0101645
0.0100909
0.00993694
0.101018
0.101014
0.101015
0.101016
0.101016
0.101016
0.101015
0.101013
0.101012
0.101012
0.101012
0.101013
0.101014
0.101016
0.101017
0.101018
0.101018
0.101017
0.101016
0.10102
0.0828962
0.0828513
0.082851
0.0828542
0.0828558
0.0828569
0.0828584
0.0828602
0.0828618
0.0828627
0.0828628
0.0828624
0.0828614
0.0828599
0.0828582
0.0828566
0.0828549
0.082852
0.0828529
0.0828982
0.134649
0.134647
0.134647
0.134647
0.134648
0.134648
0.134648
0.134649
0.134649
0.134649
0.134649
0.134649
0.134649
0.134648
0.134648
0.134647
0.134647
0.134647
0.134647
0.134649
0.053722
0.0537212
0.0537166
0.0537106
0.0537046
0.0536993
0.0536948
0.0536914
0.053689
0.0536876
0.0536874
0.0536883
0.0536902
0.0536933
0.0536973
0.0537023
0.053708
0.0537138
0.0537183
0.0537191
0.0481623
0.0481729
0.0481606
0.0481469
0.0481336
0.0481214
0.0481111
0.048103
0.0480975
0.0480946
0.0480945
0.0480972
0.0481026
0.0481104
0.0481206
0.0481326
0.0481459
0.0481595
0.0481718
0.0481611
0.0173576
0.0174422
0.0174544
0.0174511
0.0174437
0.0174355
0.0174282
0.0174224
0.0174184
0.0174164
0.0174163
0.0174182
0.017422
0.0174277
0.0174349
0.0174429
0.0174502
0.0174534
0.0174411
0.0173564
0.0551725
0.0551797
0.0551779
0.0551736
0.0551684
0.0551631
0.0551583
0.0551542
0.0551513
0.0551498
0.0551497
0.0551511
0.0551539
0.0551578
0.0551626
0.0551677
0.0551728
0.0551771
0.0551788
0.0551716
0.135145
0.135138
0.135138
0.135138
0.135139
0.135139
0.135139
0.135139
0.135139
0.135139
0.135139
0.135139
0.135139
0.135139
0.135138
0.135138
0.135137
0.135136
0.135137
0.135143
0.0490074
0.0490169
0.0490173
0.0490127
0.0490055
0.0489977
0.0489903
0.0489842
0.0489798
0.0489775
0.0489772
0.0489791
0.0489829
0.0489886
0.0489955
0.0490031
0.04901
0.0490143
0.0490138
0.0490042
0.108077
0.108099
0.1081
0.1081
0.1081
0.1081
0.108099
0.108098
0.108097
0.108096
0.108097
0.108097
0.108098
0.108099
0.1081
0.108101
0.108101
0.108101
0.1081
0.108077
0.110969
0.110957
0.110955
0.110955
0.110955
0.110953
0.110951
0.110949
0.110947
0.110946
0.110946
0.110947
0.110949
0.110952
0.110954
0.110955
0.110956
0.110956
0.110958
0.11097
0.108107
0.108101
0.1081
0.108099
0.108099
0.108098
0.108096
0.108094
0.108092
0.108091
0.108091
0.108092
0.108094
0.108096
0.108098
0.108099
0.108099
0.1081
0.108101
0.108107
0.0848517
0.0848549
0.0848556
0.0848564
0.0848572
0.0848577
0.0848579
0.0848579
0.0848577
0.0848577
0.0848578
0.084858
0.0848583
0.0848586
0.0848586
0.0848583
0.0848577
0.084857
0.0848565
0.0848533
0.0758097
0.0757937
0.0757876
0.0757858
0.075785
0.0757841
0.0757831
0.0757821
0.0757812
0.0757808
0.0757809
0.0757816
0.0757827
0.0757839
0.0757851
0.075786
0.0757869
0.0757889
0.0757951
0.0758111
0.105007
0.104982
0.104976
0.104975
0.104974
0.104972
0.10497
0.104967
0.104965
0.104964
0.104964
0.104965
0.104967
0.104969
0.104972
0.104974
0.104975
0.104976
0.104982
0.105007
0.0187308
0.0186534
0.0186475
0.0186407
0.0186318
0.0186236
0.0186166
0.0186109
0.0186067
0.0186044
0.0186044
0.0186062
0.0186099
0.0186154
0.0186227
0.0186315
0.0186405
0.0186467
0.0186516
0.0187288
0.072147
0.0721176
0.0721154
0.0721168
0.0721173
0.0721172
0.072117
0.0721166
0.0721163
0.0721161
0.0721161
0.0721162
0.0721165
0.0721168
0.072117
0.0721171
0.0721166
0.0721151
0.0721174
0.0721469
0.0730917
0.0730798
0.0730733
0.0730695
0.0730672
0.0730657
0.0730645
0.0730635
0.0730628
0.0730625
0.0730624
0.0730628
0.0730634
0.0730643
0.0730654
0.0730669
0.0730691
0.073073
0.0730795
0.0730915
0.0776844
0.0776803
0.0776791
0.0776797
0.0776811
0.0776827
0.0776843
0.0776855
0.0776864
0.077687
0.0776871
0.0776868
0.0776861
0.0776851
0.0776837
0.0776823
0.0776811
0.0776807
0.077682
0.0776862
0.130298
0.130294
0.130292
0.130291
0.130289
0.130287
0.130285
0.130283
0.130281
0.13028
0.13028
0.130281
0.130283
0.130285
0.130288
0.13029
0.130292
0.130293
0.130295
0.130299
0.0954285
0.0954355
0.095437
0.095438
0.0954391
0.09544
0.0954407
0.0954412
0.0954415
0.0954416
0.0954416
0.0954416
0.0954415
0.0954411
0.0954405
0.0954397
0.0954387
0.0954378
0.0954364
0.0954294
0.274517
0.274518
0.274518
0.274518
0.274517
0.274517
0.274517
0.274517
0.274517
0.274518
0.274518
0.274518
0.274518
0.274518
0.274518
0.274518
0.274518
0.274518
0.274518
0.274518
0.270156
0.270155
0.270154
0.270153
0.270153
0.270152
0.270151
0.270151
0.270151
0.270151
0.270151
0.270151
0.270152
0.270153
0.270154
0.270155
0.270156
0.270157
0.270157
0.270159
0.268668
0.268665
0.268664
0.268663
0.268662
0.268661
0.26866
0.268659
0.268659
0.268659
0.268659
0.26866
0.268661
0.268662
0.268663
0.268664
0.268665
0.268666
0.268668
0.268671
0.273354
0.273354
0.273354
0.273354
0.273354
0.273354
0.273354
0.273354
0.273354
0.273354
0.273354
0.273354
0.273354
0.273354
0.273354
0.273355
0.273355
0.273355
0.273355
0.273355
0.248973
0.248952
0.248947
0.248942
0.248937
0.248931
0.248925
0.24892
0.248917
0.248915
0.248916
0.248918
0.248922
0.248927
0.248934
0.24894
0.248946
0.248951
0.248957
0.248979
0.271594
0.271595
0.271594
0.271594
0.271593
0.271593
0.271593
0.271592
0.271592
0.271592
0.271592
0.271593
0.271593
0.271594
0.271594
0.271595
0.271596
0.271596
0.271597
0.271597
0.238363
0.238349
0.238342
0.238333
0.238322
0.238312
0.238301
0.238293
0.238288
0.238286
0.238288
0.238292
0.2383
0.238309
0.23832
0.238331
0.23834
0.238348
0.238355
0.238369
0.27375
0.273751
0.273751
0.273751
0.273751
0.273751
0.273751
0.273751
0.273751
0.273751
0.273751
0.273751
0.273751
0.273751
0.273751
0.273752
0.273752
0.273752
0.273752
0.273751
0.276573
0.276573
0.276573
0.276574
0.276574
0.276574
0.276574
0.276574
0.276574
0.276574
0.276574
0.276574
0.276575
0.276575
0.276575
0.276575
0.276575
0.276575
0.276575
0.276574
0.280612
0.280613
0.280613
0.280613
0.280613
0.280613
0.280613
0.280613
0.280613
0.280613
0.280612
0.280612
0.280612
0.280612
0.280612
0.280612
0.280612
0.280612
0.280612
0.280611
0.272674
0.272676
0.272676
0.272675
0.272675
0.272675
0.272675
0.272675
0.272675
0.272675
0.272675
0.272675
0.272675
0.272676
0.272676
0.272676
0.272677
0.272677
0.272677
0.272676
0.276033
0.276035
0.276035
0.276035
0.276035
0.276035
0.276035
0.276035
0.276035
0.276035
0.276035
0.276035
0.276035
0.276035
0.276035
0.276035
0.276035
0.276035
0.276036
0.276034
0.271871
0.271872
0.271872
0.271872
0.271871
0.271871
0.271871
0.271871
0.271871
0.271871
0.271871
0.271871
0.271871
0.271872
0.271872
0.271873
0.271873
0.271873
0.271873
0.271873
0.273376
0.273376
0.273376
0.273376
0.273376
0.273376
0.273376
0.273376
0.273376
0.273376
0.273376
0.273376
0.273377
0.273377
0.273377
0.273377
0.273377
0.273377
0.273377
0.273377
0.280385
0.280387
0.280387
0.280387
0.280387
0.280386
0.280386
0.280386
0.280386
0.280386
0.280386
0.280386
0.280386
0.280386
0.280386
0.280386
0.280387
0.280387
0.280387
0.280385
0.281541
0.281541
0.281541
0.281541
0.281541
0.281541
0.281541
0.281541
0.281541
0.281541
0.281541
0.281541
0.281541
0.281541
0.281541
0.281541
0.281541
0.281541
0.281541
0.281541
0.280135
0.280137
0.280137
0.280137
0.280137
0.280137
0.280137
0.280137
0.280137
0.280137
0.280137
0.280137
0.280137
0.280137
0.280137
0.280137
0.280137
0.280137
0.280137
0.280135
0.272576
0.272576
0.272576
0.272576
0.272576
0.272575
0.272575
0.272575
0.272575
0.272575
0.272575
0.272575
0.272575
0.272576
0.272576
0.272577
0.272577
0.272577
0.272578
0.272578
0.274847
0.274849
0.274849
0.274849
0.274849
0.274849
0.274849
0.274849
0.274849
0.274849
0.274849
0.274849
0.274849
0.274849
0.274849
0.274849
0.274849
0.27485
0.27485
0.274848
0.280697
0.280698
0.280698
0.280698
0.280698
0.280698
0.280698
0.280698
0.280698
0.280699
0.280699
0.280699
0.280699
0.280699
0.280699
0.280699
0.280699
0.280699
0.280699
0.280699
0.274664
0.274664
0.274664
0.274664
0.274664
0.274664
0.274664
0.274664
0.274664
0.274664
0.274664
0.274664
0.274664
0.274665
0.274665
0.274665
0.274665
0.274665
0.274665
0.274664
0.27925
0.27925
0.27925
0.27925
0.27925
0.27925
0.27925
0.27925
0.27925
0.27925
0.27925
0.27925
0.27925
0.27925
0.27925
0.27925
0.27925
0.27925
0.27925
0.27925
0.277925
0.277925
0.277925
0.277925
0.277925
0.277925
0.277925
0.277925
0.277925
0.277925
0.277925
0.277925
0.277925
0.277926
0.277926
0.277926
0.277926
0.277926
0.277926
0.277925
0.282207
0.282207
0.282207
0.282207
0.282207
0.282207
0.282207
0.282207
0.282207
0.282207
0.282207
0.282207
0.282207
0.282207
0.282207
0.282207
0.282207
0.282207
0.282207
0.282207
0.275531
0.275531
0.275531
0.275531
0.275531
0.275531
0.275531
0.275531
0.275531
0.275531
0.275531
0.275531
0.275531
0.275531
0.275531
0.275531
0.275531
0.275531
0.275531
0.275531
0.276585
0.276588
0.276587
0.276587
0.276587
0.276587
0.276587
0.276587
0.276587
0.276587
0.276587
0.276587
0.276587
0.276587
0.276587
0.276587
0.276587
0.276587
0.276587
0.276585
0.276754
0.276755
0.276755
0.276755
0.276755
0.276755
0.276755
0.276755
0.276755
0.276755
0.276755
0.276755
0.276755
0.276756
0.276756
0.276756
0.276756
0.276756
0.276756
0.276755
0.275885
0.275886
0.275886
0.275886
0.275886
0.275886
0.275886
0.275886
0.275886
0.275886
0.275886
0.275886
0.275886
0.275886
0.275886
0.275886
0.275886
0.275886
0.275886
0.275885
0.278229
0.27823
0.27823
0.27823
0.27823
0.27823
0.27823
0.27823
0.27823
0.27823
0.27823
0.27823
0.27823
0.27823
0.27823
0.27823
0.27823
0.27823
0.27823
0.278229
0.279289
0.27929
0.27929
0.27929
0.27929
0.27929
0.27929
0.27929
0.27929
0.27929
0.27929
0.27929
0.27929
0.27929
0.27929
0.27929
0.27929
0.27929
0.27929
0.279289
0.275916
0.275917
0.275917
0.275917
0.275917
0.275917
0.275917
0.275917
0.275917
0.275917
0.275917
0.275917
0.275917
0.275917
0.275917
0.275917
0.275917
0.275918
0.275918
0.275916
0.27287
0.272871
0.272871
0.272871
0.272871
0.27287
0.27287
0.27287
0.27287
0.27287
0.27287
0.272871
0.272871
0.272871
0.272871
0.272872
0.272872
0.272872
0.272872
0.272871
0.274678
0.274679
0.274679
0.274679
0.274679
0.274679
0.274679
0.274679
0.274679
0.274679
0.274679
0.274679
0.274679
0.274679
0.274679
0.274679
0.274679
0.274679
0.274679
0.274679
0.280247
0.280247
0.280247
0.280247
0.280247
0.280247
0.280247
0.280247
0.280247
0.280247
0.280247
0.280247
0.280247
0.280247
0.280247
0.280247
0.280247
0.280247
0.280247
0.280247
0.27393
0.27393
0.27393
0.27393
0.27393
0.27393
0.27393
0.27393
0.27393
0.27393
0.27393
0.27393
0.27393
0.273931
0.273931
0.273931
0.273931
0.273931
0.273931
0.273931
0.270826
0.270826
0.270825
0.270825
0.270825
0.270824
0.270824
0.270824
0.270824
0.270824
0.270824
0.270824
0.270825
0.270825
0.270826
0.270826
0.270827
0.270827
0.270828
0.270828
0.273649
0.27365
0.27365
0.27365
0.27365
0.27365
0.273649
0.273649
0.273649
0.273649
0.27365
0.27365
0.27365
0.27365
0.27365
0.27365
0.273651
0.273651
0.273651
0.27365
0.281846
0.281846
0.281846
0.281846
0.281846
0.281846
0.281846
0.281846
0.281846
0.281846
0.281846
0.281846
0.281846
0.281846
0.281846
0.281846
0.281846
0.281846
0.281846
0.281845
0.282492
0.282492
0.282492
0.282492
0.282492
0.282492
0.282492
0.282492
0.282492
0.282492
0.282492
0.282492
0.282492
0.282492
0.282492
0.282492
0.282492
0.282492
0.282492
0.282491
0.280273
0.280274
0.280274
0.280274
0.280274
0.280274
0.280274
0.280274
0.280274
0.280274
0.280274
0.280274
0.280274
0.280274
0.280274
0.280274
0.280274
0.280274
0.280274
0.280273
0.282007
0.282008
0.282008
0.282008
0.282008
0.282008
0.282008
0.282008
0.282008
0.282008
0.282008
0.282008
0.282008
0.282008
0.282008
0.282008
0.282008
0.282008
0.282008
0.282008
0.266507
0.266501
0.266499
0.266499
0.266498
0.266497
0.266496
0.266495
0.266495
0.266494
0.266495
0.266495
0.266496
0.266497
0.266498
0.2665
0.266501
0.266501
0.266503
0.266509
0.282925
0.282925
0.282925
0.282925
0.282925
0.282925
0.282924
0.282924
0.282924
0.282924
0.282924
0.282924
0.282924
0.282924
0.282924
0.282924
0.282924
0.282924
0.282924
0.282923
0.262239
0.262229
0.262226
0.262225
0.262223
0.262221
0.262218
0.262217
0.262215
0.262215
0.262215
0.262217
0.262219
0.262221
0.262224
0.262227
0.262229
0.262231
0.262234
0.262244
0.277519
0.277519
0.277519
0.277519
0.277519
0.277519
0.277519
0.277519
0.277519
0.277519
0.277519
0.277519
0.277519
0.277519
0.277519
0.277519
0.277519
0.27752
0.27752
0.27752
0.286521
0.286522
0.286522
0.286522
0.286522
0.286522
0.286523
0.286523
0.286523
0.286523
0.286523
0.286523
0.286523
0.286523
0.286523
0.286523
0.286523
0.286523
0.286523
0.286522
0.224722
0.224551
0.224537
0.224531
0.224525
0.224517
0.22451
0.224503
0.224498
0.224495
0.224495
0.224498
0.224503
0.224511
0.224519
0.224527
0.224533
0.224539
0.224554
0.224724
0.285595
0.285596
0.285596
0.285596
0.285596
0.285595
0.285595
0.285595
0.285595
0.285596
0.285596
0.285596
0.285597
0.285597
0.285598
0.285598
0.285599
0.285599
0.285599
0.285598
0.284068
0.284068
0.284068
0.284068
0.284068
0.284068
0.284068
0.284068
0.284068
0.284068
0.284068
0.284068
0.284068
0.284068
0.284068
0.284068
0.284068
0.284068
0.284068
0.284068
0.279604
0.279605
0.279605
0.279605
0.279605
0.279605
0.279605
0.279605
0.279605
0.279605
0.279605
0.279605
0.279605
0.279605
0.279605
0.279605
0.279605
0.279605
0.279605
0.279604
0.27755
0.27755
0.27755
0.27755
0.27755
0.27755
0.27755
0.27755
0.27755
0.27755
0.27755
0.27755
0.27755
0.27755
0.27755
0.27755
0.27755
0.27755
0.27755
0.27755
0.278399
0.2784
0.2784
0.2784
0.2784
0.2784
0.2784
0.2784
0.2784
0.2784
0.2784
0.2784
0.2784
0.2784
0.2784
0.2784
0.2784
0.2784
0.2784
0.278399
0.278829
0.278829
0.278829
0.278829
0.278829
0.278829
0.278829
0.278829
0.278829
0.278829
0.278829
0.278829
0.278829
0.278829
0.278829
0.278829
0.278829
0.278829
0.278829
0.278829
0.28342
0.28342
0.28342
0.28342
0.28342
0.28342
0.28342
0.28342
0.28342
0.28342
0.28342
0.28342
0.28342
0.28342
0.28342
0.28342
0.28342
0.28342
0.28342
0.283419
0.284653
0.284653
0.284653
0.284654
0.284654
0.284655
0.284655
0.284655
0.284655
0.284655
0.284654
0.284654
0.284653
0.284653
0.284653
0.284653
0.284654
0.284655
0.284656
0.284656
0.285911
0.285913
0.285913
0.285913
0.285913
0.285913
0.285913
0.285913
0.285913
0.285913
0.285913
0.285914
0.285914
0.285915
0.285915
0.285916
0.285916
0.285916
0.285916
0.285915
0.239833
0.239824
0.239819
0.239812
0.239804
0.239796
0.239788
0.239782
0.239777
0.239775
0.239775
0.239778
0.239783
0.239789
0.239797
0.239806
0.239814
0.239821
0.239826
0.239835
0.270467
0.270465
0.270464
0.270464
0.270463
0.270463
0.270463
0.270462
0.270462
0.270462
0.270462
0.270463
0.270463
0.270464
0.270465
0.270465
0.270466
0.270466
0.270467
0.270469
0.279427
0.279426
0.279426
0.279426
0.279426
0.279426
0.279426
0.279426
0.279426
0.279426
0.279426
0.279426
0.279426
0.279426
0.279426
0.279426
0.279426
0.279427
0.279427
0.279427
0.280138
0.280138
0.280137
0.280137
0.280137
0.280137
0.280137
0.280137
0.280137
0.280137
0.280137
0.280137
0.280137
0.280137
0.280137
0.280137
0.280137
0.280137
0.280137
0.280137
0.276539
0.276538
0.276538
0.276538
0.276538
0.276538
0.276538
0.276538
0.276538
0.276538
0.276538
0.276538
0.276538
0.276538
0.276538
0.276538
0.276538
0.276538
0.276538
0.276539
0.271396
0.271395
0.271395
0.271394
0.271394
0.271394
0.271393
0.271393
0.271393
0.271393
0.271393
0.271394
0.271394
0.271394
0.271395
0.271396
0.271396
0.271396
0.271397
0.271398
0.28019
0.28019
0.28019
0.28019
0.28019
0.28019
0.28019
0.28019
0.28019
0.28019
0.28019
0.28019
0.28019
0.28019
0.28019
0.280191
0.280191
0.280191
0.280191
0.28019
0.280366
0.280366
0.280366
0.280366
0.280366
0.280366
0.280366
0.280365
0.280365
0.280365
0.280365
0.280365
0.280365
0.280365
0.280365
0.280366
0.280366
0.280366
0.280366
0.280366
0.279304
0.279303
0.279303
0.279303
0.279303
0.279303
0.279303
0.279303
0.279303
0.279303
0.279303
0.279303
0.279303
0.279303
0.279303
0.279303
0.279303
0.279303
0.279303
0.279304
0.276021
0.276019
0.276019
0.276019
0.276019
0.276019
0.276019
0.276019
0.276019
0.276019
0.276019
0.276019
0.276019
0.276019
0.276019
0.276019
0.276019
0.276019
0.276019
0.276021
0.276752
0.276752
0.276752
0.276752
0.276752
0.276752
0.276752
0.276752
0.276752
0.276753
0.276753
0.276753
0.276753
0.276753