/*--------------------------------*- C++ -*----------------------------------*\
| =========                 |                                                 |
| \\      /  F ield         | OpenFOAM: The Open Source CFD Toolbox           |
|  \\    /   O peration     | Version:  4.1                                   |
|   \\  /    A nd           | Web:      www.OpenFOAM.org                      |
|    \\/     M anipulation  |                                                 |
\*---------------------------------------------------------------------------*/
FoamFile
{
    version     2.0;
    format      ascii;
    class       volScalarField;
    location    "0.019";
    object      rho;
}
// * * * * * * * * * * * * * * * * * * * * * * * * * * * * * * * * * * * * * //

dimensions      [1 -3 0 0 0 0 0];

internalField   nonuniform List<scalar> 
278640
(
757.49
757.435
757.441
757.449
757.457
757.465
757.471
757.477
757.481
757.483
757.483
757.481
757.477
757.471
757.465
757.457
757.449
757.441
757.435
757.49
758.256
758.213
758.218
758.224
758.231
758.237
758.242
758.246
758.249
758.251
758.251
758.249
758.246
758.242
758.237
758.231
758.224
758.218
758.213
758.256
749.304
749.148
749.162
749.178
749.195
749.21
749.224
749.234
749.241
749.245
749.245
749.242
749.234
749.224
749.21
749.194
749.178
749.161
749.148
749.304
758.396
758.359
758.363
758.368
758.374
758.379
758.384
758.388
758.39
758.392
758.392
758.39
758.388
758.384
758.379
758.374
758.368
758.363
758.359
758.396
748.622
748.489
748.5
748.516
748.532
748.547
748.56
748.571
748.578
748.582
748.582
748.578
748.571
748.56
748.547
748.532
748.515
748.499
748.488
748.621
755.789
755.71
755.718
755.729
755.74
755.75
755.76
755.767
755.772
755.775
755.775
755.772
755.767
755.76
755.75
755.74
755.729
755.718
755.71
755.789
756.328
756.26
756.267
756.277
756.288
756.298
756.307
756.314
756.319
756.321
756.321
756.319
756.314
756.307
756.298
756.288
756.277
756.267
756.26
756.328
753.298
753.215
753.225
753.237
753.251
753.264
753.275
753.284
753.29
753.294
753.294
753.29
753.284
753.275
753.264
753.251
753.237
753.225
753.215
753.298
758.757
758.737
758.739
758.743
758.746
758.749
758.752
758.755
758.757
758.757
758.757
758.757
758.755
758.752
758.749
758.746
758.743
758.739
758.737
758.757
758.71
758.688
758.691
758.695
758.699
758.703
758.706
758.709
758.711
758.712
758.712
758.711
758.709
758.706
758.703
758.699
758.695
758.691
758.688
758.71
756.989
756.936
756.942
756.95
756.958
756.967
756.974
756.98
756.984
756.986
756.986
756.984
756.98
756.974
756.967
756.958
756.95
756.942
756.936
756.989
752.058
751.961
751.972
751.986
752
752.014
752.026
752.036
752.043
752.046
752.046
752.043
752.036
752.026
752.014
752
751.986
751.972
751.961
752.058
754.28
754.193
754.202
754.215
754.227
754.24
754.251
754.26
754.266
754.269
754.269
754.266
754.26
754.251
754.24
754.227
754.215
754.202
754.193
754.28
756.698
756.646
756.653
756.662
756.671
756.68
756.688
756.694
756.698
756.701
756.701
756.698
756.694
756.688
756.68
756.671
756.662
756.653
756.646
756.698
754.913
754.839
754.848
754.86
754.872
754.883
754.894
754.902
754.907
754.91
754.91
754.907
754.902
754.894
754.883
754.872
754.86
754.848
754.839
754.913
758.074
758.028
758.033
758.04
758.047
758.054
758.06
758.064
758.068
758.069
758.069
758.068
758.064
758.06
758.054
758.047
758.04
758.033
758.028
758.074
758.611
758.584
758.587
758.592
758.597
758.602
758.606
758.61
758.612
758.613
758.613
758.612
758.61
758.606
758.602
758.597
758.592
758.587
758.584
758.611
750.284
750.139
750.151
750.167
750.184
750.2
750.214
750.225
750.232
750.236
750.236
750.232
750.224
750.213
750.2
750.184
750.167
750.151
750.139
750.284
752.729
752.64
752.649
752.663
752.677
752.69
752.702
752.712
752.718
752.722
752.722
752.718
752.712
752.702
752.69
752.677
752.663
752.65
752.64
752.729
758.666
758.64
758.643
758.648
758.652
758.657
758.66
758.664
758.666
758.667
758.667
758.666
758.664
758.66
758.657
758.652
758.648
758.643
758.64
758.666
757.892
757.856
757.861
757.867
757.874
757.881
757.887
757.892
757.896
757.898
757.898
757.896
757.892
757.887
757.881
757.874
757.867
757.861
757.856
757.892
758.29
758.254
758.258
758.264
758.27
758.276
758.282
758.286
758.289
758.29
758.29
758.289
758.286
758.282
758.276
758.27
758.264
758.258
758.254
758.29
757.311
757.261
757.267
757.275
757.284
757.292
757.3
757.306
757.31
757.312
757.312
757.31
757.306
757.3
757.292
757.284
757.275
757.267
757.261
757.311
758.041
757.997
758.002
758.009
758.016
758.023
758.03
758.035
758.038
758.04
758.04
758.038
758.035
758.03
758.023
758.016
758.009
758.002
757.997
758.041
755.831
755.754
755.762
755.773
755.785
755.796
755.806
755.814
755.819
755.822
755.822
755.819
755.814
755.806
755.796
755.785
755.773
755.762
755.754
755.831
758.868
758.853
758.855
758.858
758.861
758.864
758.867
758.869
758.871
758.872
758.872
758.871
758.869
758.867
758.864
758.861
758.858
758.855
758.853
758.868
751.613
751.513
751.523
751.538
751.553
751.568
751.58
751.591
751.598
751.601
751.601
751.598
751.591
751.58
751.568
751.553
751.538
751.523
751.513
751.614
746.141
746.075
746.084
746.096
746.11
746.123
746.135
746.144
746.151
746.154
746.154
746.151
746.144
746.135
746.123
746.11
746.096
746.084
746.075
746.141
758.76
758.741
758.743
758.747
758.751
758.754
758.757
758.76
758.762
758.763
758.763
758.762
758.76
758.757
758.754
758.751
758.747
758.743
758.741
758.76
758.605
758.581
758.584
758.589
758.593
758.598
758.602
758.605
758.608
758.609
758.609
758.608
758.605
758.602
758.598
758.593
758.589
758.584
758.581
758.605
755.44
755.374
755.382
755.393
755.405
755.416
755.425
755.433
755.439
755.442
755.442
755.439
755.433
755.425
755.416
755.405
755.393
755.382
755.374
755.44
753.872
753.796
753.805
753.817
753.829
753.841
753.852
753.86
753.866
753.869
753.869
753.866
753.86
753.852
753.841
753.829
753.817
753.805
753.796
753.872
747.652
747.567
747.578
747.592
747.606
747.62
747.633
747.643
747.65
747.653
747.653
747.65
747.643
747.632
747.62
747.606
747.591
747.577
747.567
747.651
758.244
758.209
758.213
758.219
758.225
758.231
758.237
758.241
758.244
758.245
758.245
758.244
758.241
758.237
758.231
758.225
758.219
758.213
758.209
758.244
757.799
757.769
757.774
757.78
757.787
757.793
757.799
757.804
757.808
757.809
757.809
757.808
757.804
757.799
757.793
757.787
757.78
757.774
757.769
757.799
757.041
757.003
757.008
757.016
757.024
757.032
757.039
757.045
757.049
757.051
757.051
757.049
757.045
757.039
757.032
757.024
757.016
757.008
757.003
757.041
756.369
756.311
756.318
756.327
756.337
756.347
756.356
756.363
756.368
756.37
756.37
756.368
756.363
756.356
756.347
756.337
756.327
756.318
756.311
756.369
758.909
758.899
758.901
758.903
758.905
758.908
758.91
758.912
758.913
758.914
758.914
758.913
758.912
758.91
758.908
758.905
758.903
758.901
758.899
758.909
745.024
744.992
744.999
745.01
745.022
745.034
745.045
745.054
745.06
745.063
745.063
745.06
745.054
745.045
745.034
745.022
745.01
744.999
744.992
745.024
549.968
549.972
549.974
549.975
549.977
549.979
549.981
549.982
549.984
549.984
549.985
549.984
549.984
549.982
549.981
549.98
549.978
549.977
549.975
549.972
538.73
538.736
538.737
538.738
538.738
538.738
538.738
538.738
538.738
538.738
538.738
538.737
538.737
538.737
538.736
538.736
538.736
538.736
538.734
538.728
574.348
574.355
574.36
574.366
574.373
574.381
574.388
574.394
574.398
574.401
574.401
574.398
574.394
574.388
574.381
574.373
574.367
574.36
574.355
574.348
593.79
593.81
593.821
593.831
593.843
593.856
593.868
593.879
593.887
593.891
593.891
593.887
593.879
593.868
593.856
593.843
593.831
593.821
593.81
593.789
740.894
740.847
740.854
740.865
740.877
740.888
740.898
740.906
740.912
740.915
740.915
740.912
740.906
740.898
740.888
740.876
740.865
740.854
740.847
740.894
725.05
725.05
725.073
725.118
725.177
725.242
725.306
725.36
725.4
725.421
725.422
725.401
725.362
725.308
725.244
725.179
725.12
725.075
725.052
725.051
663.279
663.298
663.324
663.359
663.399
663.44
663.479
663.512
663.536
663.548
663.548
663.536
663.512
663.479
663.44
663.398
663.359
663.324
663.297
663.279
737.017
736.873
736.811
736.808
736.843
736.896
736.954
737.006
737.045
737.066
737.066
737.045
737.007
736.955
736.896
736.843
736.808
736.809
736.87
737.012
608.543
608.55
608.561
608.576
608.592
608.61
608.626
608.641
608.651
608.656
608.656
608.651
608.641
608.626
608.61
608.592
608.575
608.561
608.55
608.543
548.76
548.764
548.766
548.767
548.769
548.77
548.772
548.774
548.775
548.776
548.776
548.776
548.776
548.775
548.773
548.772
548.771
548.77
548.769
548.765
558.298
558.3
558.301
558.303
558.306
558.308
558.311
558.313
558.315
558.316
558.316
558.315
558.313
558.31
558.307
558.305
558.302
558.3
558.298
558.296
612.703
612.827
612.878
612.932
612.996
613.065
613.13
613.186
613.226
613.247
613.247
613.226
613.186
613.13
613.064
612.995
612.931
612.877
612.826
612.702
741.613
741.568
741.576
741.587
741.6
741.612
741.622
741.631
741.637
741.64
741.64
741.637
741.631
741.622
741.612
741.6
741.587
741.576
741.568
741.613
743.834
743.807
743.814
743.825
743.837
743.848
743.859
743.868
743.874
743.877
743.877
743.874
743.868
743.859
743.848
743.837
743.825
743.814
743.807
743.834
615.042
615.056
615.073
615.094
615.118
615.143
615.168
615.188
615.203
615.211
615.211
615.204
615.189
615.169
615.146
615.121
615.097
615.076
615.059
615.045
627.453
627.473
627.491
627.511
627.536
627.562
627.587
627.608
627.624
627.632
627.632
627.623
627.607
627.585
627.559
627.533
627.508
627.487
627.469
627.449
534.761
534.761
534.761
534.761
534.76
534.759
534.759
534.758
534.758
534.758
534.757
534.758
534.758
534.758
534.759
534.759
534.76
534.76
534.76
534.76
603.769
603.777
603.786
603.797
603.811
603.825
603.838
603.85
603.858
603.863
603.863
603.858
603.85
603.838
603.825
603.811
603.797
603.786
603.777
603.769
577.62
577.626
577.631
577.638
577.645
577.652
577.66
577.666
577.67
577.673
577.673
577.67
577.665
577.659
577.651
577.644
577.636
577.63
577.624
577.619
598.689
598.699
598.708
598.718
598.73
598.742
598.753
598.763
598.771
598.774
598.774
598.771
598.763
598.753
598.742
598.729
598.718
598.708
598.699
598.689
732.227
732.146
732.122
732.141
732.187
732.248
732.311
732.367
732.408
732.43
732.43
732.408
732.368
732.312
732.249
732.188
732.141
732.122
732.145
732.225
541.852
541.854
541.855
541.855
541.856
541.856
541.856
541.857
541.857
541.857
541.857
541.857
541.857
541.857
541.857
541.857
541.856
541.856
541.855
541.853
647.374
647.386
647.406
647.432
647.461
647.493
647.522
647.548
647.566
647.576
647.576
647.567
647.549
647.524
647.495
647.464
647.435
647.409
647.39
647.377
579.802
579.81
579.817
579.824
579.832
579.84
579.848
579.855
579.86
579.862
579.862
579.859
579.854
579.847
579.839
579.83
579.822
579.815
579.808
579.8
585.433
585.447
585.456
585.464
585.473
585.482
585.491
585.499
585.504
585.507
585.507
585.504
585.498
585.49
585.481
585.472
585.463
585.454
585.446
585.432
589.442
589.456
589.465
589.474
589.483
589.494
589.504
589.512
589.518
589.522
589.522
589.518
589.512
589.503
589.494
589.483
589.474
589.465
589.456
589.442
553.135
553.138
553.14
553.142
553.144
553.146
553.148
553.149
553.151
553.152
553.152
553.151
553.15
553.149
553.147
553.145
553.144
553.142
553.14
553.136
536.409
536.411
536.412
536.412
536.412
536.411
536.411
536.411
536.411
536.411
536.41
536.41
536.41
536.411
536.411
536.411
536.411
536.411
536.41
536.408
609.719
609.727
609.739
609.755
609.775
609.797
609.817
609.834
609.845
609.851
609.851
609.846
609.834
609.818
609.798
609.776
609.756
609.74
609.728
609.719
668.153
668.165
668.192
668.229
668.274
668.321
668.366
668.403
668.43
668.445
668.446
668.433
668.407
668.371
668.327
668.281
668.237
668.2
668.174
668.162
666.483
666.474
666.478
666.499
666.535
666.579
666.623
666.661
666.688
666.702
666.702
666.69
666.664
666.627
666.584
666.54
666.505
666.485
666.481
666.491
570.858
570.862
570.867
570.872
570.877
570.882
570.887
570.892
570.895
570.897
570.897
570.895
570.892
570.888
570.883
570.878
570.873
570.868
570.864
570.859
711.795
711.891
711.951
712.023
712.105
712.19
712.27
712.337
712.385
712.411
712.411
712.386
712.339
712.272
712.193
712.109
712.027
711.955
711.895
711.798
540.317
540.319
540.319
540.319
540.319
540.319
540.319
540.319
540.319
540.319
540.319
540.319
540.319
540.319
540.319
540.319
540.319
540.319
540.319
540.317
742.914
742.841
742.85
742.863
742.876
742.889
742.901
742.911
742.917
742.921
742.921
742.917
742.911
742.901
742.89
742.876
742.863
742.85
742.841
742.914
544.136
544.14
544.141
544.142
544.143
544.144
544.145
544.145
544.146
544.146
544.147
544.147
544.147
544.146
544.146
544.146
544.145
544.144
544.143
544.139
631.485
631.644
631.692
631.741
631.799
631.86
631.918
631.966
632
632.018
632.017
631.997
631.961
631.91
631.851
631.789
631.729
631.68
631.632
631.473
572.572
572.577
572.582
572.587
572.593
572.599
572.605
572.61
572.614
572.616
572.616
572.614
572.611
572.606
572.6
572.594
572.588
572.582
572.577
572.572
740.371
740.327
740.329
740.337
740.349
740.361
740.373
740.382
740.389
740.393
740.393
740.389
740.382
740.372
740.361
740.348
740.337
740.328
740.327
740.37
565.561
565.565
565.568
565.571
565.575
565.579
565.582
565.586
565.588
565.589
565.589
565.588
565.585
565.582
565.578
565.574
565.57
565.567
565.564
565.56
568.311
568.314
568.318
568.321
568.326
568.33
568.334
568.338
568.341
568.342
568.342
568.341
568.338
568.334
568.33
568.326
568.321
568.318
568.314
568.311
609.771
609.782
609.796
609.814
609.835
609.859
609.882
609.902
609.917
609.925
609.925
609.917
609.902
609.882
609.858
609.835
609.814
609.796
609.782
609.77
563.095
563.098
563.1
563.103
563.106
563.109
563.112
563.114
563.116
563.117
563.117
563.116
563.114
563.111
563.108
563.105
563.102
563.099
563.096
563.094
654.842
654.834
654.846
654.873
654.909
654.951
654.996
655.04
655.077
655.1
655.098
655.072
655.032
654.985
654.938
654.894
654.856
654.828
654.815
654.823
636.2
636.222
636.241
636.263
636.288
636.313
636.338
636.358
636.373
636.38
636.38
636.372
636.357
636.337
636.312
636.286
636.261
636.239
636.22
636.198
610.487
610.498
610.514
610.534
610.557
610.58
610.603
610.621
610.635
610.642
610.642
610.635
610.621
610.603
610.58
610.556
610.533
610.513
610.497
610.486
654.361
654.377
654.399
654.425
654.456
654.488
654.517
654.542
654.56
654.569
654.57
654.561
654.545
654.521
654.493
654.462
654.432
654.406
654.385
654.368
610.46
610.576
610.602
610.624
610.655
610.691
610.728
610.761
610.788
610.803
610.805
610.794
610.771
610.74
610.706
610.673
610.644
610.623
610.598
610.483
605.868
605.875
605.884
605.896
605.91
605.924
605.938
605.949
605.957
605.961
605.961
605.957
605.949
605.938
605.925
605.91
605.897
605.885
605.875
605.868
545.899
545.903
545.905
545.906
545.907
545.907
545.908
545.909
545.909
545.91
545.91
545.91
545.91
545.909
545.909
545.908
545.908
545.907
545.905
545.902
555.158
555.161
555.163
555.165
555.167
555.169
555.17
555.172
555.173
555.173
555.173
555.173
555.172
555.17
555.169
555.167
555.166
555.164
555.162
555.159
575.536
575.54
575.546
575.552
575.558
575.565
575.571
575.576
575.58
575.582
575.582
575.58
575.576
575.57
575.564
575.558
575.551
575.545
575.54
575.535
609.48
609.486
609.497
609.511
609.528
609.545
609.562
609.575
609.585
609.591
609.591
609.586
609.576
609.562
609.546
609.528
609.512
609.497
609.486
609.48
742.373
742.329
742.336
742.348
742.359
742.371
742.382
742.391
742.397
742.4
742.4
742.397
742.391
742.382
742.371
742.36
742.347
742.336
742.329
742.372
581.819
581.826
581.833
581.84
581.848
581.856
581.863
581.869
581.873
581.876
581.875
581.873
581.868
581.862
581.855
581.847
581.839
581.832
581.825
581.817
560.326
560.328
560.33
560.332
560.335
560.337
560.339
560.341
560.342
560.343
560.342
560.342
560.34
560.338
560.335
560.333
560.33
560.328
560.326
560.324
618.316
618.332
618.349
618.368
618.389
618.411
618.431
618.447
618.459
618.465
618.465
618.46
618.448
618.432
618.413
618.392
618.371
618.352
618.336
618.319
611.621
611.634
611.65
611.67
611.693
611.717
611.739
611.757
611.77
611.777
611.777
611.771
611.759
611.741
611.719
611.696
611.673
611.652
611.636
611.624
638.756
638.807
638.826
638.843
638.866
638.893
638.919
638.942
638.959
638.968
638.966
638.955
638.935
638.909
638.88
638.852
638.827
638.809
638.789
638.738
646.257
646.282
646.29
646.295
646.3
646.306
646.312
646.317
646.32
646.322
646.322
646.32
646.317
646.312
646.306
646.301
646.296
646.291
646.282
646.258
541.163
541.156
541.156
541.153
541.153
541.157
541.157
541.153
541.152
541.152
541.155
541.154
541.151
541.155
541.158
541.158
541.158
541.159
541.16
541.161
631.435
631.449
631.455
631.457
631.457
631.458
631.46
631.461
631.463
631.463
631.463
631.462
631.46
631.458
631.456
631.455
631.454
631.452
631.446
631.432
529.436
529.44
529.441
529.441
529.44
529.439
529.439
529.438
529.438
529.438
529.438
529.438
529.438
529.439
529.44
529.441
529.442
529.442
529.441
529.437
532.605
532.605
532.605
532.605
532.605
532.604
532.603
532.602
532.602
532.601
532.601
532.601
532.602
532.602
532.603
532.604
532.604
532.605
532.605
532.604
725.882
725.706
725.629
725.612
725.622
725.642
725.661
725.677
725.689
725.694
725.695
725.689
725.679
725.663
725.644
725.625
725.615
725.631
725.709
725.885
613.753
613.863
613.878
613.889
613.902
613.916
613.93
613.941
613.949
613.954
613.954
613.949
613.941
613.929
613.916
613.902
613.889
613.878
613.862
613.753
726.981
726.775
726.677
726.644
726.644
726.657
726.674
726.69
726.701
726.707
726.708
726.702
726.692
726.677
726.661
726.648
726.648
726.682
726.78
726.987
589.506
589.512
589.51
589.508
589.508
589.509
589.511
589.513
589.514
589.515
589.515
589.514
589.511
589.509
589.507
589.505
589.505
589.506
589.508
589.502
619.467
619.54
619.54
619.535
619.533
619.531
619.528
619.525
619.523
619.521
619.521
619.522
619.523
619.526
619.529
619.531
619.534
619.539
619.537
619.464
530.487
530.489
530.49
530.49
530.489
530.488
530.487
530.487
530.486
530.486
530.486
530.487
530.487
530.488
530.489
530.489
530.49
530.49
530.49
530.487
664.956
664.957
664.964
664.973
664.982
664.99
664.997
665.002
665.006
665.008
665.008
665.007
665.004
664.999
664.993
664.986
664.977
664.968
664.961
664.96
673.4
673.384
673.402
673.423
673.442
673.46
673.476
673.488
673.496
673.5
673.5
673.496
673.488
673.477
673.462
673.444
673.424
673.404
673.386
673.402
717.078
716.962
716.945
716.949
716.959
716.971
716.981
716.988
716.994
716.997
716.997
716.994
716.989
716.981
716.971
716.961
716.951
716.946
716.963
717.079
662.667
662.656
662.659
662.666
662.674
662.682
662.689
662.695
662.7
662.702
662.702
662.7
662.696
662.69
662.682
662.675
662.667
662.66
662.658
662.669
529.633
529.644
529.645
529.644
529.643
529.642
529.642
529.642
529.642
529.642
529.642
529.643
529.643
529.643
529.644
529.645
529.646
529.647
529.646
529.635
671.938
671.923
671.923
671.93
671.94
671.952
671.963
671.972
671.979
671.982
671.983
671.98
671.974
671.966
671.955
671.944
671.934
671.927
671.928
671.942
580.111
580.074
580.071
580.071
580.071
580.072
580.073
580.074
580.075
580.076
580.076
580.075
580.074
580.073
580.071
580.071
580.07
580.071
580.073
580.11
572.485
572.506
572.51
572.509
572.51
572.512
572.515
572.519
572.522
572.524
572.524
572.522
572.519
572.515
572.511
572.509
572.508
572.508
572.505
572.484
577.355
577.364
577.367
577.368
577.369
577.371
577.374
577.377
577.38
577.381
577.381
577.38
577.377
577.373
577.37
577.368
577.367
577.367
577.364
577.354
616.795
616.79
616.789
616.788
616.786
616.785
616.785
616.785
616.785
616.785
616.785
616.785
616.784
616.784
616.784
616.785
616.786
616.787
616.788
616.793
630.853
630.878
630.887
630.89
630.891
630.893
630.894
630.896
630.897
630.898
630.898
630.897
630.895
630.893
630.891
630.89
630.888
630.885
630.876
630.851
582.663
582.705
582.715
582.717
582.719
582.722
582.727
582.731
582.734
582.736
582.736
582.734
582.731
582.727
582.722
582.719
582.717
582.715
582.705
582.663
715.157
715.263
715.27
715.279
715.292
715.303
715.312
715.32
715.326
715.329
715.329
715.327
715.322
715.314
715.304
715.292
715.28
715.271
715.265
715.16
636.658
636.704
636.707
636.705
636.704
636.705
636.705
636.705
636.706
636.706
636.706
636.706
636.706
636.705
636.705
636.705
636.706
636.708
636.704
636.658
635.111
635.13
635.14
635.146
635.15
635.152
635.154
635.156
635.157
635.157
635.157
635.157
635.156
635.154
635.153
635.15
635.147
635.141
635.13
635.112
627.928
627.934
627.936
627.935
627.933
627.93
627.928
627.926
627.925
627.924
627.924
627.924
627.925
627.927
627.929
627.931
627.933
627.933
627.931
627.925
543.559
543.565
543.568
543.57
543.572
543.574
543.578
543.581
543.583
543.584
543.584
543.583
543.58
543.577
543.573
543.57
543.568
543.567
543.563
543.557
600.172
600.161
600.158
600.157
600.155
600.153
600.152
600.151
600.151
600.151
600.151
600.151
600.151
600.152
600.153
600.154
600.156
600.157
600.16
600.171
351.37
351.37
351.37
351.37
351.37
351.37
351.37
351.37
351.37
351.37
351.37
351.37
351.37
351.37
351.37
351.37
351.37
351.37
351.37
351.37
357.467
357.47
357.471
357.471
357.471
357.472
357.472
357.473
357.473
357.473
357.473
357.472
357.472
357.471
357.471
357.47
357.469
357.469
357.468
357.465
358.877
358.882
358.883
358.884
358.884
358.885
358.885
358.886
358.886
358.887
358.886
358.886
358.885
358.885
358.884
358.883
358.882
358.881
358.88
358.875
353.456
353.455
353.455
353.455
353.455
353.456
353.456
353.456
353.456
353.456
353.456
353.456
353.455
353.455
353.455
353.455
353.455
353.454
353.454
353.455
372.991
373.025
373.033
373.036
373.041
373.047
373.053
373.058
373.061
373.063
373.063
373.061
373.057
373.052
373.046
373.04
373.034
373.03
373.022
372.987
356.074
356.074
356.074
356.074
356.075
356.075
356.075
356.076
356.076
356.076
356.076
356.075
356.075
356.075
356.074
356.073
356.073
356.072
356.072
356.072
379.153
379.176
379.184
379.192
379.202
379.213
379.224
379.232
379.237
379.24
379.238
379.234
379.226
379.217
379.206
379.195
379.185
379.178
379.171
379.148
352.762
352.761
352.761
352.761
352.761
352.761
352.761
352.761
352.761
352.762
352.761
352.761
352.761
352.761
352.761
352.761
352.761
352.76
352.76
352.762
347.645
347.644
347.644
347.644
347.643
347.643
347.643
347.643
347.643
347.642
347.642
347.642
347.642
347.642
347.642
347.642
347.642
347.642
347.642
347.643
340.238
340.236
340.236
340.236
340.236
340.236
340.237
340.237
340.237
340.237
340.238
340.238
340.238
340.238
340.238
340.238
340.238
340.238
340.238
340.24
354.609
354.607
354.607
354.607
354.607
354.607
354.608
354.608
354.608
354.608
354.608
354.607
354.607
354.607
354.607
354.606
354.606
354.606
354.606
354.607
348.625
348.622
348.622
348.622
348.622
348.622
348.622
348.622
348.622
348.622
348.622
348.622
348.622
348.621
348.621
348.621
348.621
348.621
348.621
348.624
355.814
355.813
355.813
355.813
355.813
355.813
355.814
355.814
355.814
355.814
355.814
355.813
355.813
355.813
355.812
355.812
355.812
355.811
355.811
355.813
353.43
353.429
353.429
353.429
353.429
353.429
353.429
353.429
353.429
353.429
353.429
353.429
353.429
353.429
353.429
353.429
353.428
353.428
353.428
353.429
340.657
340.655
340.654
340.655
340.655
340.655
340.655
340.655
340.655
340.655
340.655
340.655
340.655
340.655
340.655
340.655
340.655
340.655
340.655
340.657
338.549
338.549
338.549
338.549
338.549
338.549
338.549
338.549
338.549
338.549
338.549
338.549
338.549
338.549
338.549
338.549
338.549
338.549
338.549
338.549
341.12
341.118
341.118
341.118
341.118
341.118
341.118
341.118
341.118
341.118
341.118
341.118
341.118
341.118
341.118
341.118
341.118
341.118
341.118
341.12
354.701
354.702
354.702
354.702
354.702
354.703
354.703
354.703
354.703
354.703
354.703
354.703
354.703
354.702
354.702
354.702
354.701
354.701
354.701
354.7
350.772
350.77
350.77
350.77
350.77
350.77
350.77
350.77
350.77
350.77
350.77
350.77
350.77
350.77
350.77
350.77
350.769
350.769
350.769
350.772
340.083
340.082
340.082
340.082
340.082
340.082
340.082
340.082
340.081
340.081
340.081
340.081
340.081
340.081
340.08
340.08
340.08
340.08
340.08
340.081
351.106
351.105
351.105
351.105
351.105
351.105
351.105
351.105
351.105
351.105
351.105
351.105
351.105
351.105
351.105
351.104
351.104
351.104
351.104
351.106
342.752
342.752
342.752
342.752
342.752
342.752
342.752
342.752
342.752
342.752
342.752
342.752
342.752
342.752
342.752
342.752
342.752
342.752
342.752
342.752
345.179
345.178
345.178
345.178
345.178
345.178
345.178
345.178
345.178
345.178
345.178
345.178
345.178
345.178
345.178
345.178
345.178
345.178
345.178
345.179
337.329
337.329
337.329
337.329
337.329
337.329
337.329
337.329
337.329
337.329
337.329
337.329
337.329
337.329
337.329
337.329
337.329
337.328
337.329
337.329
349.537
349.536
349.536
349.536
349.536
349.536
349.536
349.536
349.536
349.536
349.537
349.537
349.537
349.537
349.537
349.537
349.537
349.537
349.537
349.537
347.62
347.617
347.617
347.617
347.617
347.617
347.617
347.617
347.617
347.617
347.617
347.617
347.617
347.617
347.617
347.617
347.617
347.617
347.617
347.621
347.314
347.312
347.312
347.312
347.312
347.312
347.312
347.312
347.312
347.311
347.311
347.311
347.311
347.311
347.311
347.311
347.311
347.31
347.31
347.312
348.895
348.893
348.893
348.893
348.893
348.893
348.893
348.893
348.893
348.893
348.893
348.893
348.893
348.893
348.893
348.893
348.893
348.893
348.893
348.895
344.623
344.622
344.622
344.622
344.622
344.622
344.622
344.622
344.622
344.622
344.622
344.622
344.622
344.622
344.622
344.622
344.622
344.622
344.622
344.623
342.678
342.676
342.676
342.676
342.676
342.676
342.676
342.676
342.676
342.676
342.676
342.676
342.676
342.676
342.676
342.676
342.675
342.675
342.676
342.678
348.839
348.837
348.837
348.837
348.837
348.837
348.837
348.837
348.837
348.837
348.837
348.837
348.837
348.837
348.837
348.837
348.836
348.836
348.836
348.839
354.304
354.302
354.302
354.302
354.302
354.302
354.302
354.302
354.303
354.303
354.302
354.302
354.302
354.302
354.302
354.301
354.301
354.301
354.301
354.303
351.08
351.079
351.079
351.079
351.079
351.079
351.079
351.079
351.079
351.079
351.079
351.079
351.079
351.079
351.079
351.079
351.079
351.079
351.079
351.08
340.919
340.919
340.919
340.919
340.919
340.919
340.919
340.919
340.919
340.919
340.92
340.92
340.92
340.92
340.92
340.92
340.92
340.92
340.92
340.92
352.438
352.438
352.438
352.438
352.438
352.438
352.438
352.438
352.438
352.438
352.438
352.438
352.438
352.438
352.438
352.437
352.437
352.437
352.437
352.438
356.982
356.982
356.982
356.982
356.982
356.983
356.983
356.983
356.983
356.983
356.983
356.983
356.982
356.982
356.982
356.981
356.981
356.98
356.98
356.98
352.942
352.94
352.94
352.941
352.941
352.941
352.941
352.941
352.941
352.941
352.941
352.941
352.941
352.941
352.94
352.94
352.94
352.94
352.94
352.941
337.988
337.988
337.988
337.988
337.988
337.988
337.988
337.988
337.988
337.988
337.988
337.988
337.988
337.988
337.988
337.988
337.988
337.988
337.988
337.989
336.806
336.805
336.805
336.805
336.805
336.805
336.805
336.805
336.805
336.805
336.805
336.805
336.805
336.805
336.805
336.805
336.805
336.805
336.805
336.806
340.866
340.864
340.864
340.864
340.864
340.864
340.864
340.864
340.865
340.865
340.864
340.864
340.864
340.864
340.864
340.864
340.864
340.864
340.864
340.866
337.694
337.693
337.693
337.693
337.693
337.693
337.693
337.693
337.693
337.693
337.693
337.693
337.693
337.693
337.692
337.692
337.692
337.692
337.692
337.693
360.596
360.605
360.607
360.608
360.608
360.609
360.609
360.61
360.61
360.61
360.61
360.61
360.609
360.608
360.608
360.607
360.606
360.606
360.604
360.595
336.013
336.012
336.012
336.013
336.013
336.013
336.013
336.014
336.014
336.014
336.014
336.015
336.015
336.015
336.015
336.015
336.015
336.015
336.015
336.016
363.598
363.613
363.617
363.618
363.619
363.621
363.623
363.624
363.626
363.626
363.626
363.625
363.623
363.621
363.619
363.617
363.615
363.614
363.61
363.595
345.92
345.92
345.92
345.92
345.92
345.92
345.921
345.921
345.921
345.921
345.921
345.92
345.92
345.92
345.92
345.92
345.92
345.92
345.92
345.92
329.384
329.383
329.382
329.382
329.382
329.382
329.381
329.381
329.381
329.381
329.38
329.38
329.38
329.381
329.381
329.381
329.381
329.381
329.382
329.382
383.824
384.129
384.155
384.164
384.172
384.181
384.192
384.2
384.207
384.211
384.211
384.207
384.2
384.19
384.18
384.17
384.162
384.153
384.126
383.822
331.102
331.1
331.1
331.1
331.1
331.1
331.1
331.1
331.1
331.1
331.099
331.099
331.098
331.097
331.096
331.095
331.095
331.094
331.094
331.095
333.915
333.915
333.914
333.914
333.914
333.914
333.914
333.914
333.914
333.914
333.914
333.914
333.914
333.914
333.914
333.914
333.915
333.915
333.915
333.915
342.098
342.097
342.097
342.097
342.097
342.097
342.097
342.097
342.097
342.097
342.097
342.097
342.097
342.097
342.097
342.097
342.097
342.097
342.097
342.098
345.864
345.864
345.864
345.864
345.864
345.864
345.864
345.864
345.864
345.864
345.864
345.864
345.864
345.864
345.864
345.864
345.864
345.864
345.864
345.864
344.31
344.309
344.309
344.309
344.309
344.309
344.309
344.309
344.309
344.309
344.309
344.309
344.309
344.309
344.309
344.309
344.309
344.309
344.309
344.31
343.525
343.525
343.525
343.525
343.525
343.525
343.525
343.525
343.525
343.525
343.525
343.525
343.525
343.525
343.525
343.525
343.525
343.525
343.525
343.525
335.103
335.103
335.103
335.103
335.103
335.103
335.103
335.103
335.103
335.103
335.103
335.103
335.103
335.103
335.103
335.103
335.103
335.103
335.103
335.104
332.837
332.836
332.836
332.835
332.835
332.834
332.833
332.833
332.833
332.834
332.835
332.836
332.837
332.837
332.837
332.836
332.835
332.833
332.832
332.831
330.506
330.504
330.503
330.503
330.503
330.503
330.503
330.503
330.503
330.502
330.502
330.501
330.501
330.5
330.499
330.498
330.497
330.497
330.497
330.499
380.754
380.767
380.774
380.781
380.789
380.797
380.805
380.812
380.817
380.819
380.819
380.816
380.811
380.804
380.796
380.787
380.779
380.771
380.765
380.751
357.16
357.163
357.164
357.164
357.164
357.164
357.165
357.165
357.165
357.165
357.165
357.164
357.164
357.164
357.163
357.163
357.162
357.162