/*--------------------------------*- C++ -*----------------------------------*\
| =========                 |                                                 |
| \\      /  F ield         | OpenFOAM: The Open Source CFD Toolbox           |
|  \\    /   O peration     | Version:  4.1                                   |
|   \\  /    A nd           | Web:      www.OpenFOAM.org                      |
|    \\/     M anipulation  |                                                 |
\*---------------------------------------------------------------------------*/
FoamFile
{
    version     2.0;
    format      ascii;
    class       volScalarField;
    location    "0.019";
    object      rhoE;
}
// * * * * * * * * * * * * * * * * * * * * * * * * * * * * * * * * * * * * * //

dimensions      [1 -1 -2 0 0 0 0];

internalField   nonuniform List<scalar> 
278640
(
1.90482e+08
1.90468e+08
1.9047e+08
1.90472e+08
1.90474e+08
1.90476e+08
1.90478e+08
1.90479e+08
1.9048e+08
1.9048e+08
1.9048e+08
1.9048e+08
1.90479e+08
1.90478e+08
1.90476e+08
1.90474e+08
1.90472e+08
1.9047e+08
1.90468e+08
1.90482e+08
1.90552e+08
1.90541e+08
1.90542e+08
1.90544e+08
1.90546e+08
1.90547e+08
1.90549e+08
1.9055e+08
1.90551e+08
1.90551e+08
1.90551e+08
1.90551e+08
1.9055e+08
1.90549e+08
1.90547e+08
1.90546e+08
1.90544e+08
1.90542e+08
1.90541e+08
1.90552e+08
1.89349e+08
1.89308e+08
1.89312e+08
1.89316e+08
1.8932e+08
1.89324e+08
1.89328e+08
1.89331e+08
1.89333e+08
1.89333e+08
1.89333e+08
1.89333e+08
1.89331e+08
1.89328e+08
1.89324e+08
1.8932e+08
1.89316e+08
1.89312e+08
1.89308e+08
1.89349e+08
1.90575e+08
1.90566e+08
1.90567e+08
1.90568e+08
1.9057e+08
1.90571e+08
1.90572e+08
1.90573e+08
1.90574e+08
1.90574e+08
1.90574e+08
1.90574e+08
1.90573e+08
1.90572e+08
1.90571e+08
1.9057e+08
1.90568e+08
1.90567e+08
1.90566e+08
1.90575e+08
1.89276e+08
1.89241e+08
1.89244e+08
1.89248e+08
1.89252e+08
1.89256e+08
1.89259e+08
1.89262e+08
1.89264e+08
1.89265e+08
1.89265e+08
1.89264e+08
1.89262e+08
1.8926e+08
1.89256e+08
1.89252e+08
1.89248e+08
1.89244e+08
1.89241e+08
1.89276e+08
1.9026e+08
1.9024e+08
1.90242e+08
1.90245e+08
1.90248e+08
1.90251e+08
1.90253e+08
1.90255e+08
1.90256e+08
1.90257e+08
1.90257e+08
1.90256e+08
1.90255e+08
1.90253e+08
1.90251e+08
1.90248e+08
1.90245e+08
1.90242e+08
1.9024e+08
1.9026e+08
1.90328e+08
1.9031e+08
1.90312e+08
1.90314e+08
1.90317e+08
1.9032e+08
1.90322e+08
1.90324e+08
1.90325e+08
1.90326e+08
1.90326e+08
1.90325e+08
1.90324e+08
1.90322e+08
1.9032e+08
1.90317e+08
1.90314e+08
1.90312e+08
1.9031e+08
1.90328e+08
1.89947e+08
1.89926e+08
1.89928e+08
1.89932e+08
1.89935e+08
1.89939e+08
1.89942e+08
1.89944e+08
1.89946e+08
1.89947e+08
1.89947e+08
1.89946e+08
1.89944e+08
1.89942e+08
1.89939e+08
1.89935e+08
1.89932e+08
1.89928e+08
1.89926e+08
1.89947e+08
1.9061e+08
1.90605e+08
1.90606e+08
1.90607e+08
1.90608e+08
1.90609e+08
1.90609e+08
1.9061e+08
1.9061e+08
1.90611e+08
1.90611e+08
1.9061e+08
1.9061e+08
1.90609e+08
1.90609e+08
1.90608e+08
1.90607e+08
1.90606e+08
1.90605e+08
1.9061e+08
1.90614e+08
1.90608e+08
1.90609e+08
1.9061e+08
1.90611e+08
1.90612e+08
1.90613e+08
1.90614e+08
1.90614e+08
1.90614e+08
1.90614e+08
1.90614e+08
1.90614e+08
1.90613e+08
1.90612e+08
1.90611e+08
1.9061e+08
1.90609e+08
1.90608e+08
1.90614e+08
1.90413e+08
1.90399e+08
1.90401e+08
1.90403e+08
1.90405e+08
1.90408e+08
1.9041e+08
1.90411e+08
1.90412e+08
1.90413e+08
1.90413e+08
1.90412e+08
1.90411e+08
1.9041e+08
1.90408e+08
1.90405e+08
1.90403e+08
1.90401e+08
1.90399e+08
1.90413e+08
1.89765e+08
1.8974e+08
1.89743e+08
1.89747e+08
1.8975e+08
1.89754e+08
1.89757e+08
1.8976e+08
1.89761e+08
1.89762e+08
1.89762e+08
1.89762e+08
1.8976e+08
1.89757e+08
1.89754e+08
1.8975e+08
1.89747e+08
1.89743e+08
1.8974e+08
1.89765e+08
1.9008e+08
1.90057e+08
1.9006e+08
1.90063e+08
1.90067e+08
1.9007e+08
1.90073e+08
1.90075e+08
1.90077e+08
1.90077e+08
1.90077e+08
1.90077e+08
1.90075e+08
1.90073e+08
1.9007e+08
1.90067e+08
1.90063e+08
1.9006e+08
1.90057e+08
1.9008e+08
1.90393e+08
1.90379e+08
1.90381e+08
1.90383e+08
1.90385e+08
1.90388e+08
1.9039e+08
1.90392e+08
1.90393e+08
1.90393e+08
1.90393e+08
1.90393e+08
1.90392e+08
1.9039e+08
1.90388e+08
1.90385e+08
1.90383e+08
1.90381e+08
1.90379e+08
1.90393e+08
1.9018e+08
1.90161e+08
1.90163e+08
1.90166e+08
1.90169e+08
1.90172e+08
1.90175e+08
1.90177e+08
1.90179e+08
1.90179e+08
1.90179e+08
1.90179e+08
1.90177e+08
1.90175e+08
1.90172e+08
1.90169e+08
1.90166e+08
1.90163e+08
1.90161e+08
1.9018e+08
1.90554e+08
1.90542e+08
1.90544e+08
1.90545e+08
1.90547e+08
1.90549e+08
1.90551e+08
1.90552e+08
1.90553e+08
1.90553e+08
1.90553e+08
1.90553e+08
1.90552e+08
1.90551e+08
1.90549e+08
1.90547e+08
1.90545e+08
1.90544e+08
1.90542e+08
1.90554e+08
1.90609e+08
1.90602e+08
1.90603e+08
1.90605e+08
1.90606e+08
1.90607e+08
1.90608e+08
1.90609e+08
1.9061e+08
1.9061e+08
1.9061e+08
1.9061e+08
1.90609e+08
1.90608e+08
1.90607e+08
1.90606e+08
1.90605e+08
1.90603e+08
1.90602e+08
1.90609e+08
1.89499e+08
1.89461e+08
1.89464e+08
1.89468e+08
1.89473e+08
1.89477e+08
1.8948e+08
1.89483e+08
1.89485e+08
1.89486e+08
1.89486e+08
1.89485e+08
1.89483e+08
1.8948e+08
1.89477e+08
1.89473e+08
1.89468e+08
1.89464e+08
1.89461e+08
1.89499e+08
1.89867e+08
1.89844e+08
1.89847e+08
1.8985e+08
1.89854e+08
1.89857e+08
1.8986e+08
1.89863e+08
1.89865e+08
1.89866e+08
1.89866e+08
1.89865e+08
1.89863e+08
1.8986e+08
1.89857e+08
1.89854e+08
1.8985e+08
1.89847e+08
1.89844e+08
1.89867e+08
1.90611e+08
1.90604e+08
1.90605e+08
1.90606e+08
1.90608e+08
1.90609e+08
1.9061e+08
1.90611e+08
1.90611e+08
1.90611e+08
1.90611e+08
1.90611e+08
1.90611e+08
1.9061e+08
1.90609e+08
1.90608e+08
1.90606e+08
1.90605e+08
1.90604e+08
1.90611e+08
1.9055e+08
1.9054e+08
1.90542e+08
1.90543e+08
1.90545e+08
1.90547e+08
1.90549e+08
1.9055e+08
1.90551e+08
1.90552e+08
1.90552e+08
1.90551e+08
1.9055e+08
1.90549e+08
1.90547e+08
1.90545e+08
1.90543e+08
1.90542e+08
1.9054e+08
1.9055e+08
1.90576e+08
1.90566e+08
1.90567e+08
1.90569e+08
1.90571e+08
1.90572e+08
1.90574e+08
1.90575e+08
1.90575e+08
1.90576e+08
1.90576e+08
1.90575e+08
1.90575e+08
1.90574e+08
1.90572e+08
1.90571e+08
1.90569e+08
1.90567e+08
1.90566e+08
1.90576e+08
1.90471e+08
1.90458e+08
1.9046e+08
1.90462e+08
1.90464e+08
1.90466e+08
1.90468e+08
1.9047e+08
1.90471e+08
1.90472e+08
1.90472e+08
1.90471e+08
1.9047e+08
1.90468e+08
1.90466e+08
1.90464e+08
1.90462e+08
1.9046e+08
1.90458e+08
1.90471e+08
1.90565e+08
1.90553e+08
1.90555e+08
1.90557e+08
1.90558e+08
1.9056e+08
1.90562e+08
1.90563e+08
1.90564e+08
1.90565e+08
1.90565e+08
1.90564e+08
1.90563e+08
1.90562e+08
1.9056e+08
1.90558e+08
1.90557e+08
1.90555e+08
1.90553e+08
1.90565e+08
1.90315e+08
1.90295e+08
1.90297e+08
1.903e+08
1.90303e+08
1.90306e+08
1.90309e+08
1.90311e+08
1.90312e+08
1.90313e+08
1.90313e+08
1.90312e+08
1.90311e+08
1.90309e+08
1.90306e+08
1.90303e+08
1.903e+08
1.90297e+08
1.90295e+08
1.90315e+08
1.90633e+08
1.90629e+08
1.9063e+08
1.90631e+08
1.90632e+08
1.90632e+08
1.90633e+08
1.90634e+08
1.90634e+08
1.90634e+08
1.90634e+08
1.90634e+08
1.90634e+08
1.90633e+08
1.90632e+08
1.90632e+08
1.90631e+08
1.9063e+08
1.90629e+08
1.90633e+08
1.89728e+08
1.89702e+08
1.89704e+08
1.89708e+08
1.89712e+08
1.89716e+08
1.89719e+08
1.89722e+08
1.89724e+08
1.89725e+08
1.89725e+08
1.89724e+08
1.89722e+08
1.89719e+08
1.89716e+08
1.89712e+08
1.89708e+08
1.89704e+08
1.89702e+08
1.89728e+08
1.88829e+08
1.88811e+08
1.88814e+08
1.88817e+08
1.8882e+08
1.88824e+08
1.88827e+08
1.88829e+08
1.88831e+08
1.88832e+08
1.88832e+08
1.88831e+08
1.88829e+08
1.88827e+08
1.88824e+08
1.8882e+08
1.88817e+08
1.88814e+08
1.88811e+08
1.88829e+08
1.90619e+08
1.90614e+08
1.90614e+08
1.90615e+08
1.90616e+08
1.90617e+08
1.90618e+08
1.90619e+08
1.90619e+08
1.9062e+08
1.9062e+08
1.90619e+08
1.90619e+08
1.90618e+08
1.90617e+08
1.90616e+08
1.90615e+08
1.90614e+08
1.90614e+08
1.90619e+08
1.90619e+08
1.90613e+08
1.90614e+08
1.90615e+08
1.90616e+08
1.90617e+08
1.90618e+08
1.90619e+08
1.9062e+08
1.9062e+08
1.9062e+08
1.9062e+08
1.90619e+08
1.90618e+08
1.90617e+08
1.90616e+08
1.90615e+08
1.90614e+08
1.90613e+08
1.90619e+08
1.90271e+08
1.90253e+08
1.90255e+08
1.90258e+08
1.90261e+08
1.90264e+08
1.90267e+08
1.90269e+08
1.9027e+08
1.90271e+08
1.90271e+08
1.9027e+08
1.90269e+08
1.90267e+08
1.90264e+08
1.90261e+08
1.90258e+08
1.90255e+08
1.90253e+08
1.90271e+08
1.90034e+08
1.90014e+08
1.90016e+08
1.90019e+08
1.90023e+08
1.90026e+08
1.90028e+08
1.90031e+08
1.90032e+08
1.90033e+08
1.90033e+08
1.90032e+08
1.90031e+08
1.90028e+08
1.90026e+08
1.90023e+08
1.90019e+08
1.90016e+08
1.90014e+08
1.90034e+08
1.89111e+08
1.89089e+08
1.89092e+08
1.89095e+08
1.89099e+08
1.89103e+08
1.89106e+08
1.89109e+08
1.8911e+08
1.89111e+08
1.89111e+08
1.8911e+08
1.89109e+08
1.89106e+08
1.89103e+08
1.89099e+08
1.89095e+08
1.89091e+08
1.89089e+08
1.89111e+08
1.90581e+08
1.90571e+08
1.90572e+08
1.90574e+08
1.90576e+08
1.90577e+08
1.90579e+08
1.9058e+08
1.90581e+08
1.90581e+08
1.90581e+08
1.90581e+08
1.9058e+08
1.90579e+08
1.90577e+08
1.90576e+08
1.90574e+08
1.90572e+08
1.90571e+08
1.90581e+08
1.90544e+08
1.90537e+08
1.90538e+08
1.90539e+08
1.90541e+08
1.90543e+08
1.90544e+08
1.90546e+08
1.90547e+08
1.90547e+08
1.90547e+08
1.90547e+08
1.90546e+08
1.90544e+08
1.90543e+08
1.90541e+08
1.90539e+08
1.90538e+08
1.90537e+08
1.90544e+08
1.90453e+08
1.90444e+08
1.90445e+08
1.90447e+08
1.90449e+08
1.90451e+08
1.90453e+08
1.90455e+08
1.90456e+08
1.90456e+08
1.90456e+08
1.90456e+08
1.90455e+08
1.90453e+08
1.90451e+08
1.90449e+08
1.90447e+08
1.90445e+08
1.90444e+08
1.90453e+08
1.90374e+08
1.90358e+08
1.9036e+08
1.90363e+08
1.90365e+08
1.90368e+08
1.9037e+08
1.90372e+08
1.90373e+08
1.90374e+08
1.90374e+08
1.90373e+08
1.90372e+08
1.9037e+08
1.90368e+08
1.90365e+08
1.90363e+08
1.9036e+08
1.90358e+08
1.90374e+08
1.90637e+08
1.90634e+08
1.90635e+08
1.90635e+08
1.90636e+08
1.90637e+08
1.90637e+08
1.90638e+08
1.90638e+08
1.90638e+08
1.90638e+08
1.90638e+08
1.90638e+08
1.90637e+08
1.90637e+08
1.90636e+08
1.90635e+08
1.90635e+08
1.90634e+08
1.90637e+08
1.88619e+08
1.88611e+08
1.88613e+08
1.88616e+08
1.88619e+08
1.88622e+08
1.88625e+08
1.88627e+08
1.88629e+08
1.88629e+08
1.88629e+08
1.88629e+08
1.88627e+08
1.88625e+08
1.88622e+08
1.88619e+08
1.88616e+08
1.88613e+08
1.88611e+08
1.88619e+08
1.38754e+08
1.38755e+08
1.38756e+08
1.38756e+08
1.38757e+08
1.38757e+08
1.38757e+08
1.38758e+08
1.38758e+08
1.38758e+08
1.38758e+08
1.38758e+08
1.38758e+08
1.38758e+08
1.38758e+08
1.38757e+08
1.38757e+08
1.38757e+08
1.38756e+08
1.38755e+08
1.35868e+08
1.3587e+08
1.3587e+08
1.3587e+08
1.3587e+08
1.3587e+08
1.3587e+08
1.3587e+08
1.3587e+08
1.3587e+08
1.3587e+08
1.3587e+08
1.3587e+08
1.3587e+08
1.3587e+08
1.3587e+08
1.3587e+08
1.3587e+08
1.3587e+08
1.35868e+08
1.45016e+08
1.45018e+08
1.45019e+08
1.45021e+08
1.45022e+08
1.45024e+08
1.45026e+08
1.45028e+08
1.45029e+08
1.45029e+08
1.45029e+08
1.45029e+08
1.45028e+08
1.45026e+08
1.45024e+08
1.45022e+08
1.45021e+08
1.45019e+08
1.45018e+08
1.45016e+08
1.50012e+08
1.50018e+08
1.5002e+08
1.50023e+08
1.50026e+08
1.50029e+08
1.50032e+08
1.50035e+08
1.50037e+08
1.50038e+08
1.50038e+08
1.50037e+08
1.50035e+08
1.50032e+08
1.50029e+08
1.50026e+08
1.50023e+08
1.5002e+08
1.50018e+08
1.50012e+08
1.87868e+08
1.87855e+08
1.87857e+08
1.8786e+08
1.87863e+08
1.87865e+08
1.87868e+08
1.8787e+08
1.87871e+08
1.87872e+08
1.87872e+08
1.87871e+08
1.8787e+08
1.87868e+08
1.87865e+08
1.87863e+08
1.8786e+08
1.87857e+08
1.87855e+08
1.87868e+08
1.83832e+08
1.83832e+08
1.83838e+08
1.83849e+08
1.83864e+08
1.83881e+08
1.83898e+08
1.83912e+08
1.83922e+08
1.83928e+08
1.83928e+08
1.83922e+08
1.83912e+08
1.83898e+08
1.83882e+08
1.83865e+08
1.8385e+08
1.83838e+08
1.83832e+08
1.83832e+08
1.67891e+08
1.67896e+08
1.67902e+08
1.67911e+08
1.67921e+08
1.67932e+08
1.67942e+08
1.6795e+08
1.67956e+08
1.6796e+08
1.6796e+08
1.67956e+08
1.6795e+08
1.67942e+08
1.67932e+08
1.67921e+08
1.67911e+08
1.67902e+08
1.67896e+08
1.67891e+08
1.86911e+08
1.86874e+08
1.86858e+08
1.86857e+08
1.86866e+08
1.86879e+08
1.86894e+08
1.86908e+08
1.86918e+08
1.86923e+08
1.86923e+08
1.86918e+08
1.86908e+08
1.86895e+08
1.8688e+08
1.86866e+08
1.86857e+08
1.86857e+08
1.86873e+08
1.8691e+08
1.53805e+08
1.53807e+08
1.5381e+08
1.53814e+08
1.53818e+08
1.53822e+08
1.53827e+08
1.5383e+08
1.53833e+08
1.53834e+08
1.53834e+08
1.53833e+08
1.5383e+08
1.53827e+08
1.53822e+08
1.53818e+08
1.53814e+08
1.5381e+08
1.53807e+08
1.53805e+08
1.38445e+08
1.38446e+08
1.38446e+08
1.38447e+08
1.38447e+08
1.38447e+08
1.38448e+08
1.38448e+08
1.38449e+08
1.38449e+08
1.38449e+08
1.38449e+08
1.38449e+08
1.38448e+08
1.38448e+08
1.38448e+08
1.38448e+08
1.38447e+08
1.38447e+08
1.38446e+08
1.40893e+08
1.40893e+08
1.40894e+08
1.40894e+08
1.40895e+08
1.40895e+08
1.40896e+08
1.40897e+08
1.40897e+08
1.40897e+08
1.40897e+08
1.40897e+08
1.40896e+08
1.40896e+08
1.40895e+08
1.40894e+08
1.40894e+08
1.40893e+08
1.40893e+08
1.40892e+08
1.549e+08
1.54932e+08
1.54945e+08
1.54959e+08
1.54976e+08
1.54993e+08
1.5501e+08
1.55024e+08
1.55035e+08
1.5504e+08
1.5504e+08
1.55035e+08
1.55024e+08
1.5501e+08
1.54993e+08
1.54976e+08
1.54959e+08
1.54945e+08
1.54932e+08
1.549e+08
1.88015e+08
1.88003e+08
1.88005e+08
1.88008e+08
1.88011e+08
1.88014e+08
1.88017e+08
1.88019e+08
1.8802e+08
1.88021e+08
1.88021e+08
1.8802e+08
1.88019e+08
1.88017e+08
1.88014e+08
1.88011e+08
1.88008e+08
1.88005e+08
1.88003e+08
1.88015e+08
1.88396e+08
1.88389e+08
1.88391e+08
1.88394e+08
1.88397e+08
1.884e+08
1.88403e+08
1.88405e+08
1.88406e+08
1.88407e+08
1.88407e+08
1.88406e+08
1.88405e+08
1.88403e+08
1.884e+08
1.88397e+08
1.88394e+08
1.88391e+08
1.88389e+08
1.88396e+08
1.55481e+08
1.55485e+08
1.55489e+08
1.55494e+08
1.555e+08
1.55507e+08
1.55513e+08
1.55518e+08
1.55522e+08
1.55524e+08
1.55524e+08
1.55522e+08
1.55519e+08
1.55513e+08
1.55507e+08
1.55501e+08
1.55495e+08
1.5549e+08
1.55485e+08
1.55482e+08
1.58673e+08
1.58678e+08
1.58682e+08
1.58688e+08
1.58694e+08
1.58701e+08
1.58707e+08
1.58712e+08
1.58716e+08
1.58718e+08
1.58718e+08
1.58716e+08
1.58712e+08
1.58706e+08
1.587e+08
1.58693e+08
1.58687e+08
1.58681e+08
1.58677e+08
1.58672e+08
1.3485e+08
1.34851e+08
1.34851e+08
1.3485e+08
1.3485e+08
1.3485e+08
1.3485e+08
1.3485e+08
1.3485e+08
1.3485e+08
1.3485e+08
1.3485e+08
1.3485e+08
1.3485e+08
1.3485e+08
1.3485e+08
1.3485e+08
1.3485e+08
1.3485e+08
1.3485e+08
1.52577e+08
1.52579e+08
1.52582e+08
1.52585e+08
1.52588e+08
1.52592e+08
1.52595e+08
1.52598e+08
1.526e+08
1.52601e+08
1.52601e+08
1.526e+08
1.52598e+08
1.52595e+08
1.52592e+08
1.52588e+08
1.52585e+08
1.52582e+08
1.52579e+08
1.52577e+08
1.45857e+08
1.45858e+08
1.4586e+08
1.45862e+08
1.45863e+08
1.45865e+08
1.45867e+08
1.45869e+08
1.4587e+08
1.4587e+08
1.4587e+08
1.4587e+08
1.45868e+08
1.45867e+08
1.45865e+08
1.45863e+08
1.45861e+08
1.4586e+08
1.45858e+08
1.45857e+08
1.51272e+08
1.51274e+08
1.51276e+08
1.51279e+08
1.51282e+08
1.51285e+08
1.51288e+08
1.5129e+08
1.51292e+08
1.51293e+08
1.51293e+08
1.51292e+08
1.5129e+08
1.51288e+08
1.51285e+08
1.51282e+08
1.51279e+08
1.51276e+08
1.51274e+08
1.51271e+08
1.85682e+08
1.8566e+08
1.85654e+08
1.85659e+08
1.85671e+08
1.85686e+08
1.85703e+08
1.85717e+08
1.85728e+08
1.85734e+08
1.85734e+08
1.85728e+08
1.85717e+08
1.85703e+08
1.85687e+08
1.85671e+08
1.85659e+08
1.85654e+08
1.8566e+08
1.85681e+08
1.3667e+08
1.3667e+08
1.36671e+08
1.36671e+08
1.36671e+08
1.36671e+08
1.36671e+08
1.36671e+08
1.36671e+08
1.36671e+08
1.36671e+08
1.36671e+08
1.36671e+08
1.36671e+08
1.36671e+08
1.36671e+08
1.36671e+08
1.36671e+08
1.36671e+08
1.3667e+08
1.63799e+08
1.63802e+08
1.63807e+08
1.63814e+08
1.63821e+08
1.63829e+08
1.63837e+08
1.63843e+08
1.63848e+08
1.63851e+08
1.63851e+08
1.63848e+08
1.63844e+08
1.63837e+08
1.6383e+08
1.63822e+08
1.63814e+08
1.63808e+08
1.63803e+08
1.638e+08
1.46418e+08
1.4642e+08
1.46422e+08
1.46424e+08
1.46426e+08
1.46428e+08
1.4643e+08
1.46432e+08
1.46433e+08
1.46433e+08
1.46433e+08
1.46433e+08
1.46431e+08
1.4643e+08
1.46427e+08
1.46425e+08
1.46423e+08
1.46421e+08
1.4642e+08
1.46417e+08
1.47866e+08
1.4787e+08
1.47872e+08
1.47874e+08
1.47876e+08
1.47879e+08
1.47881e+08
1.47883e+08
1.47884e+08
1.47885e+08
1.47885e+08
1.47884e+08
1.47883e+08
1.47881e+08
1.47879e+08
1.47876e+08
1.47874e+08
1.47872e+08
1.4787e+08
1.47866e+08
1.48896e+08
1.48899e+08
1.48902e+08
1.48904e+08
1.48906e+08
1.48909e+08
1.48911e+08
1.48914e+08
1.48915e+08
1.48916e+08
1.48916e+08
1.48915e+08
1.48914e+08
1.48911e+08
1.48909e+08
1.48906e+08
1.48904e+08
1.48902e+08
1.48899e+08
1.48896e+08
1.39568e+08
1.39569e+08
1.39569e+08
1.3957e+08
1.3957e+08
1.39571e+08
1.39571e+08
1.39572e+08
1.39572e+08
1.39572e+08
1.39572e+08
1.39572e+08
1.39572e+08
1.39571e+08
1.39571e+08
1.3957e+08
1.3957e+08
1.3957e+08
1.39569e+08
1.39568e+08
1.35273e+08
1.35273e+08
1.35274e+08
1.35274e+08
1.35273e+08
1.35273e+08
1.35273e+08
1.35273e+08
1.35273e+08
1.35273e+08
1.35273e+08
1.35273e+08
1.35273e+08
1.35273e+08
1.35273e+08
1.35273e+08
1.35273e+08
1.35273e+08
1.35273e+08
1.35273e+08
1.5411e+08
1.54112e+08
1.54115e+08
1.5412e+08
1.54125e+08
1.5413e+08
1.54135e+08
1.5414e+08
1.54143e+08
1.54144e+08
1.54144e+08
1.54143e+08
1.5414e+08
1.54136e+08
1.5413e+08
1.54125e+08
1.5412e+08
1.54116e+08
1.54113e+08
1.54111e+08
1.69146e+08
1.69149e+08
1.69156e+08
1.69166e+08
1.69177e+08
1.69189e+08
1.692e+08
1.6921e+08
1.69217e+08
1.69221e+08
1.69221e+08
1.69217e+08
1.69211e+08
1.69202e+08
1.69191e+08
1.69179e+08
1.69168e+08
1.69158e+08
1.69151e+08
1.69148e+08
1.68722e+08
1.68719e+08
1.6872e+08
1.68726e+08
1.68735e+08
1.68746e+08
1.68757e+08
1.68767e+08
1.68774e+08
1.68777e+08
1.68777e+08
1.68774e+08
1.68768e+08
1.68758e+08
1.68747e+08
1.68736e+08
1.68727e+08
1.68722e+08
1.68721e+08
1.68723e+08
1.44119e+08
1.44121e+08
1.44122e+08
1.44123e+08
1.44124e+08
1.44126e+08
1.44127e+08
1.44128e+08
1.44129e+08
1.44129e+08
1.44129e+08
1.44129e+08
1.44128e+08
1.44127e+08
1.44126e+08
1.44124e+08
1.44123e+08
1.44122e+08
1.44121e+08
1.4412e+08
1.80415e+08
1.80439e+08
1.80455e+08
1.80473e+08
1.80494e+08
1.80516e+08
1.80537e+08
1.80554e+08
1.80567e+08
1.80573e+08
1.80573e+08
1.80567e+08
1.80555e+08
1.80538e+08
1.80517e+08
1.80495e+08
1.80474e+08
1.80456e+08
1.80441e+08
1.80416e+08
1.36276e+08
1.36276e+08
1.36276e+08
1.36276e+08
1.36276e+08
1.36276e+08
1.36276e+08
1.36276e+08
1.36276e+08
1.36276e+08
1.36276e+08
1.36276e+08
1.36276e+08
1.36276e+08
1.36276e+08
1.36276e+08
1.36276e+08
1.36276e+08
1.36276e+08
1.36276e+08
1.88232e+08
1.88213e+08
1.88216e+08
1.88219e+08
1.88222e+08
1.88226e+08
1.88228e+08
1.88231e+08
1.88233e+08
1.88233e+08
1.88233e+08
1.88233e+08
1.88231e+08
1.88228e+08
1.88226e+08
1.88222e+08
1.88219e+08
1.88216e+08
1.88213e+08
1.88232e+08
1.37257e+08
1.37258e+08
1.37258e+08
1.37258e+08
1.37259e+08
1.37259e+08
1.37259e+08
1.37259e+08
1.37259e+08
1.37259e+08
1.37259e+08
1.3726e+08
1.37259e+08
1.37259e+08
1.37259e+08
1.37259e+08
1.37259e+08
1.37259e+08
1.37259e+08
1.37258e+08
1.59736e+08
1.59778e+08
1.5979e+08
1.59803e+08
1.59818e+08
1.59833e+08
1.59848e+08
1.59861e+08
1.59869e+08
1.59874e+08
1.59874e+08
1.59868e+08
1.59859e+08
1.59846e+08
1.59831e+08
1.59815e+08
1.598e+08
1.59787e+08
1.59775e+08
1.59733e+08
1.4456e+08
1.44561e+08
1.44562e+08
1.44563e+08
1.44565e+08
1.44567e+08
1.44568e+08
1.44569e+08
1.4457e+08
1.44571e+08
1.44571e+08
1.4457e+08
1.44569e+08
1.44568e+08
1.44567e+08
1.44565e+08
1.44564e+08
1.44562e+08
1.44561e+08
1.4456e+08
1.87762e+08
1.87751e+08
1.87751e+08
1.87753e+08
1.87756e+08
1.87759e+08
1.87762e+08
1.87765e+08
1.87766e+08
1.87767e+08
1.87767e+08
1.87766e+08
1.87765e+08
1.87762e+08
1.87759e+08
1.87756e+08
1.87753e+08
1.87751e+08
1.87751e+08
1.87762e+08
1.42758e+08
1.42759e+08
1.4276e+08
1.42761e+08
1.42762e+08
1.42763e+08
1.42764e+08
1.42765e+08
1.42765e+08
1.42765e+08
1.42765e+08
1.42765e+08
1.42764e+08
1.42764e+08
1.42763e+08
1.42762e+08
1.42761e+08
1.4276e+08
1.42759e+08
1.42758e+08
1.43464e+08
1.43465e+08
1.43466e+08
1.43466e+08
1.43468e+08
1.43469e+08
1.4347e+08
1.43471e+08
1.43471e+08
1.43472e+08
1.43472e+08
1.43471e+08
1.43471e+08
1.4347e+08
1.43469e+08
1.43468e+08
1.43467e+08
1.43466e+08
1.43465e+08
1.43464e+08
1.54125e+08
1.54128e+08
1.54132e+08
1.54136e+08
1.54142e+08
1.54148e+08
1.54153e+08
1.54159e+08
1.54162e+08
1.54164e+08
1.54164e+08
1.54162e+08
1.54159e+08
1.54153e+08
1.54148e+08
1.54142e+08
1.54136e+08
1.54132e+08
1.54128e+08
1.54125e+08
1.42125e+08
1.42125e+08
1.42126e+08
1.42127e+08
1.42127e+08
1.42128e+08
1.42129e+08
1.42129e+08
1.4213e+08
1.4213e+08
1.4213e+08
1.4213e+08
1.42129e+08
1.42129e+08
1.42128e+08
1.42127e+08
1.42126e+08
1.42126e+08
1.42125e+08
1.42124e+08
1.65727e+08
1.65725e+08
1.65728e+08
1.65735e+08
1.65744e+08
1.65755e+08
1.65767e+08
1.65778e+08
1.65787e+08
1.65793e+08
1.65793e+08
1.65786e+08
1.65776e+08
1.65764e+08
1.65752e+08
1.6574e+08
1.65731e+08
1.65724e+08
1.6572e+08
1.65722e+08
1.60922e+08
1.60928e+08
1.60933e+08
1.60938e+08
1.60945e+08
1.60951e+08
1.60957e+08
1.60963e+08
1.60966e+08
1.60968e+08
1.60968e+08
1.60966e+08
1.60962e+08
1.60957e+08
1.60951e+08
1.60944e+08
1.60938e+08
1.60932e+08
1.60927e+08
1.60922e+08
1.5431e+08
1.54312e+08
1.54316e+08
1.54321e+08
1.54327e+08
1.54333e+08
1.54339e+08
1.54344e+08
1.54347e+08
1.54349e+08
1.54349e+08
1.54347e+08
1.54344e+08
1.54339e+08
1.54333e+08
1.54327e+08
1.54321e+08
1.54316e+08
1.54312e+08
1.54309e+08
1.65597e+08
1.65602e+08
1.65607e+08
1.65614e+08
1.65622e+08
1.6563e+08
1.65637e+08
1.65644e+08
1.65648e+08
1.65651e+08
1.65651e+08
1.65649e+08
1.65645e+08
1.65639e+08
1.65631e+08
1.65623e+08
1.65616e+08
1.65609e+08
1.65604e+08
1.65599e+08
1.5432e+08
1.5435e+08
1.54357e+08
1.54362e+08
1.5437e+08
1.5438e+08
1.54389e+08
1.54398e+08
1.54404e+08
1.54408e+08
1.54409e+08
1.54406e+08
1.544e+08
1.54392e+08
1.54384e+08
1.54375e+08
1.54367e+08
1.54362e+08
1.54356e+08
1.54326e+08
1.53118e+08
1.5312e+08
1.53122e+08
1.53125e+08
1.53129e+08
1.53133e+08
1.53136e+08
1.53139e+08
1.53141e+08
1.53142e+08
1.53142e+08
1.53141e+08
1.53139e+08
1.53136e+08
1.53133e+08
1.53129e+08
1.53126e+08
1.53122e+08
1.5312e+08
1.53118e+08
1.37709e+08
1.3771e+08
1.37711e+08
1.37711e+08
1.37711e+08
1.37711e+08
1.37711e+08
1.37712e+08
1.37712e+08
1.37712e+08
1.37712e+08
1.37712e+08
1.37712e+08
1.37712e+08
1.37712e+08
1.37712e+08
1.37711e+08
1.37711e+08
1.37711e+08
1.3771e+08
1.40088e+08
1.40089e+08
1.40089e+08
1.4009e+08
1.4009e+08
1.4009e+08
1.40091e+08
1.40091e+08
1.40091e+08
1.40092e+08
1.40092e+08
1.40092e+08
1.40091e+08
1.40091e+08
1.4009e+08
1.4009e+08
1.4009e+08
1.40089e+08
1.40089e+08
1.40088e+08
1.45322e+08
1.45323e+08
1.45325e+08
1.45326e+08
1.45328e+08
1.45329e+08
1.45331e+08
1.45332e+08
1.45333e+08
1.45334e+08
1.45334e+08
1.45333e+08
1.45332e+08
1.45331e+08
1.45329e+08
1.45328e+08
1.45326e+08
1.45325e+08
1.45323e+08
1.45322e+08
1.54048e+08
1.5405e+08
1.54052e+08
1.54056e+08
1.5406e+08
1.54065e+08
1.54069e+08
1.54072e+08
1.54075e+08
1.54076e+08
1.54076e+08
1.54075e+08
1.54072e+08
1.54069e+08
1.54065e+08
1.5406e+08
1.54056e+08
1.54052e+08
1.5405e+08
1.54048e+08
1.88148e+08
1.88136e+08
1.88138e+08
1.88141e+08
1.88144e+08
1.88147e+08
1.8815e+08
1.88152e+08
1.88154e+08
1.88154e+08
1.88154e+08
1.88154e+08
1.88152e+08
1.8815e+08
1.88147e+08
1.88144e+08
1.88141e+08
1.88138e+08
1.88136e+08
1.88148e+08
1.46936e+08
1.46938e+08
1.4694e+08
1.46942e+08
1.46944e+08
1.46946e+08
1.46947e+08
1.46949e+08
1.4695e+08
1.46951e+08
1.46951e+08
1.4695e+08
1.46949e+08
1.46947e+08
1.46945e+08
1.46943e+08
1.46941e+08
1.4694e+08
1.46938e+08
1.46936e+08
1.41415e+08
1.41415e+08
1.41416e+08
1.41416e+08
1.41417e+08
1.41418e+08
1.41418e+08
1.41419e+08
1.41419e+08
1.41419e+08
1.41419e+08
1.41419e+08
1.41418e+08
1.41418e+08
1.41417e+08
1.41416e+08
1.41416e+08
1.41415e+08
1.41415e+08
1.41414e+08
1.56325e+08
1.56329e+08
1.56333e+08
1.56338e+08
1.56343e+08
1.56349e+08
1.56354e+08
1.56358e+08
1.56361e+08
1.56363e+08
1.56363e+08
1.56361e+08
1.56359e+08
1.56354e+08
1.5635e+08
1.56344e+08
1.56339e+08
1.56334e+08
1.5633e+08
1.56326e+08
1.54602e+08
1.54605e+08
1.54609e+08
1.54614e+08
1.5462e+08
1.54626e+08
1.54632e+08
1.54637e+08
1.5464e+08
1.54642e+08
1.54642e+08
1.5464e+08
1.54637e+08
1.54632e+08
1.54627e+08
1.54621e+08
1.54615e+08
1.5461e+08
1.54606e+08
1.54603e+08
1.61595e+08
1.61609e+08
1.61613e+08
1.61618e+08
1.61624e+08
1.6163e+08
1.61637e+08
1.61643e+08
1.61647e+08
1.6165e+08
1.61649e+08
1.61646e+08
1.61641e+08
1.61635e+08
1.61627e+08
1.6162e+08
1.61614e+08
1.61609e+08
1.61604e+08
1.61591e+08
1.6366e+08
1.63667e+08
1.63669e+08
1.6367e+08
1.63671e+08
1.63672e+08
1.63674e+08
1.63675e+08
1.63676e+08
1.63676e+08
1.63676e+08
1.63676e+08
1.63675e+08
1.63674e+08
1.63673e+08
1.63671e+08
1.6367e+08
1.63669e+08
1.63667e+08
1.6366e+08
1.36488e+08
1.36486e+08
1.36486e+08
1.36486e+08
1.36485e+08
1.36487e+08
1.36487e+08
1.36486e+08
1.36485e+08
1.36485e+08
1.36486e+08
1.36486e+08
1.36485e+08
1.36486e+08
1.36487e+08
1.36487e+08
1.36487e+08
1.36487e+08
1.36487e+08
1.36488e+08
1.60185e+08
1.60189e+08
1.6019e+08
1.60191e+08
1.60191e+08
1.60191e+08
1.60191e+08
1.60192e+08
1.60192e+08
1.60192e+08
1.60192e+08
1.60192e+08
1.60191e+08
1.60191e+08
1.6019e+08
1.6019e+08
1.6019e+08
1.6019e+08
1.60188e+08
1.60185e+08
1.33483e+08
1.33484e+08
1.33485e+08
1.33485e+08
1.33484e+08
1.33484e+08
1.33484e+08
1.33484e+08
1.33484e+08
1.33484e+08
1.33484e+08
1.33484e+08
1.33484e+08
1.33484e+08
1.33484e+08
1.33485e+08
1.33485e+08
1.33485e+08
1.33484e+08
1.33484e+08
1.34297e+08
1.34297e+08
1.34297e+08
1.34297e+08
1.34297e+08
1.34297e+08
1.34297e+08
1.34297e+08
1.34296e+08
1.34296e+08
1.34296e+08
1.34296e+08
1.34296e+08
1.34297e+08
1.34297e+08
1.34297e+08
1.34297e+08
1.34297e+08
1.34297e+08
1.34297e+08
1.83976e+08
1.83931e+08
1.83911e+08
1.83907e+08
1.8391e+08
1.83915e+08
1.8392e+08
1.83924e+08
1.83927e+08
1.83928e+08
1.83928e+08
1.83927e+08
1.83924e+08
1.8392e+08
1.83915e+08
1.8391e+08
1.83908e+08
1.83912e+08
1.83932e+08
1.83977e+08
1.55116e+08
1.55144e+08
1.55148e+08
1.55151e+08
1.55155e+08
1.55158e+08
1.55162e+08
1.55165e+08
1.55167e+08
1.55168e+08
1.55168e+08
1.55167e+08
1.55165e+08
1.55162e+08
1.55158e+08
1.55155e+08
1.55151e+08
1.55148e+08
1.55144e+08
1.55116e+08
1.84267e+08
1.84214e+08
1.84188e+08
1.8418e+08
1.8418e+08
1.84183e+08
1.84188e+08
1.84192e+08
1.84195e+08
1.84196e+08
1.84196e+08
1.84195e+08
1.84192e+08
1.84188e+08
1.84184e+08
1.84181e+08
1.84181e+08
1.8419e+08
1.84215e+08
1.84269e+08
1.48899e+08
1.489e+08
1.489e+08
1.48899e+08
1.48899e+08
1.48899e+08
1.489e+08
1.489e+08
1.48901e+08
1.48901e+08
1.48901e+08
1.48901e+08
1.489e+08
1.48899e+08
1.48899e+08
1.48898e+08
1.48898e+08
1.48899e+08
1.48899e+08
1.48898e+08
1.56581e+08
1.566e+08
1.566e+08
1.56598e+08
1.56598e+08
1.56597e+08
1.56597e+08
1.56596e+08
1.56595e+08
1.56595e+08
1.56595e+08
1.56595e+08
1.56596e+08
1.56596e+08
1.56597e+08
1.56597e+08
1.56598e+08
1.56599e+08
1.56599e+08
1.5658e+08
1.33753e+08
1.33754e+08
1.33754e+08
1.33754e+08
1.33754e+08
1.33753e+08
1.33753e+08
1.33753e+08
1.33753e+08
1.33753e+08
1.33753e+08
1.33753e+08
1.33753e+08
1.33753e+08
1.33753e+08
1.33754e+08
1.33754e+08
1.33754e+08
1.33754e+08
1.33753e+08
1.68328e+08
1.68329e+08
1.6833e+08
1.68333e+08
1.68335e+08
1.68337e+08
1.68339e+08
1.6834e+08
1.68341e+08
1.68341e+08
1.68341e+08
1.68341e+08
1.6834e+08
1.68339e+08
1.68338e+08
1.68336e+08
1.68334e+08
1.68331e+08
1.6833e+08
1.68329e+08
1.70462e+08
1.70458e+08
1.70463e+08
1.70468e+08
1.70473e+08
1.70477e+08
1.70481e+08
1.70484e+08
1.70487e+08
1.70488e+08
1.70488e+08
1.70487e+08
1.70485e+08
1.70482e+08
1.70478e+08
1.70473e+08
1.70468e+08
1.70463e+08
1.70458e+08
1.70462e+08
1.81718e+08
1.81688e+08
1.81683e+08
1.81684e+08
1.81687e+08
1.8169e+08
1.81692e+08
1.81694e+08
1.81696e+08
1.81697e+08
1.81697e+08
1.81696e+08
1.81695e+08
1.81693e+08
1.8169e+08
1.81687e+08
1.81685e+08
1.81684e+08
1.81688e+08
1.81718e+08
1.67821e+08
1.67818e+08
1.67819e+08
1.6782e+08
1.67822e+08
1.67824e+08
1.67826e+08
1.67828e+08
1.67829e+08
1.67829e+08
1.67829e+08
1.67829e+08
1.67828e+08
1.67826e+08
1.67824e+08
1.67823e+08
1.67821e+08
1.67819e+08
1.67818e+08
1.67821e+08
1.33536e+08
1.33538e+08
1.33539e+08
1.33539e+08
1.33538e+08
1.33538e+08
1.33538e+08
1.33538e+08
1.33538e+08
1.33538e+08
1.33538e+08
1.33538e+08
1.33538e+08
1.33538e+08
1.33539e+08
1.33539e+08
1.33539e+08
1.33539e+08
1.33539e+08
1.33536e+08
1.70153e+08
1.70149e+08
1.70149e+08
1.70151e+08
1.70153e+08
1.70156e+08
1.70159e+08
1.70162e+08
1.70163e+08
1.70164e+08
1.70164e+08
1.70163e+08
1.70162e+08
1.7016e+08
1.70157e+08
1.70154e+08
1.70152e+08
1.7015e+08
1.7015e+08
1.70154e+08
1.4748e+08
1.47471e+08
1.4747e+08
1.4747e+08
1.4747e+08
1.4747e+08
1.4747e+08
1.4747e+08
1.4747e+08
1.47471e+08
1.47471e+08
1.4747e+08
1.4747e+08
1.4747e+08
1.4747e+08
1.4747e+08
1.4747e+08
1.4747e+08
1.47471e+08
1.4748e+08
1.44529e+08
1.44535e+08
1.44536e+08
1.44535e+08
1.44536e+08
1.44536e+08
1.44537e+08
1.44538e+08
1.44539e+08
1.44539e+08
1.44539e+08
1.44539e+08
1.44538e+08
1.44537e+08
1.44536e+08
1.44535e+08
1.44535e+08
1.44535e+08
1.44534e+08
1.44529e+08
1.45771e+08
1.45773e+08
1.45774e+08
1.45774e+08
1.45774e+08
1.45775e+08
1.45775e+08
1.45776e+08
1.45777e+08
1.45777e+08
1.45777e+08
1.45777e+08
1.45776e+08
1.45775e+08
1.45775e+08
1.45774e+08
1.45774e+08
1.45774e+08
1.45773e+08
1.4577e+08
1.56626e+08
1.56625e+08
1.56624e+08
1.56624e+08
1.56624e+08
1.56623e+08
1.56623e+08
1.56623e+08
1.56623e+08
1.56623e+08
1.56623e+08
1.56623e+08
1.56623e+08
1.56623e+08
1.56623e+08
1.56623e+08
1.56624e+08
1.56624e+08
1.56624e+08
1.56626e+08
1.59846e+08
1.59853e+08
1.59855e+08
1.59856e+08
1.59856e+08
1.59856e+08
1.59857e+08
1.59857e+08
1.59857e+08
1.59857e+08
1.59857e+08
1.59857e+08
1.59857e+08
1.59856e+08
1.59856e+08
1.59855e+08
1.59855e+08
1.59854e+08
1.59852e+08
1.59846e+08
1.47133e+08
1.47144e+08
1.47147e+08
1.47147e+08
1.47148e+08
1.47149e+08
1.4715e+08
1.47151e+08
1.47152e+08
1.47152e+08
1.47152e+08
1.47152e+08
1.47151e+08
1.4715e+08
1.47149e+08
1.47148e+08
1.47147e+08
1.47147e+08
1.47144e+08
1.47133e+08
1.81197e+08
1.81225e+08
1.81227e+08
1.81229e+08
1.81232e+08
1.81235e+08
1.81238e+08
1.8124e+08
1.81241e+08
1.81242e+08
1.81242e+08
1.81241e+08
1.8124e+08
1.81238e+08
1.81236e+08
1.81232e+08
1.81229e+08
1.81227e+08
1.81225e+08
1.81198e+08
1.61024e+08
1.61036e+08
1.61037e+08
1.61037e+08
1.61036e+08
1.61036e+08
1.61036e+08
1.61037e+08
1.61037e+08
1.61037e+08
1.61037e+08
1.61037e+08
1.61037e+08
1.61036e+08
1.61036e+08