/*--------------------------------*- C++ -*----------------------------------*\
| =========                 |                                                 |
| \\      /  F ield         | OpenFOAM: The Open Source CFD Toolbox           |
|  \\    /   O peration     | Version:  4.1                                   |
|   \\  /    A nd           | Web:      www.OpenFOAM.org                      |
|    \\/     M anipulation  |                                                 |
\*---------------------------------------------------------------------------*/
FoamFile
{
    version     2.0;
    format      ascii;
    class       volScalarField;
    location    "0.019";
    object      T;
}
// * * * * * * * * * * * * * * * * * * * * * * * * * * * * * * * * * * * * * //

dimensions      [0 0 0 1 0 0 0];

internalField   nonuniform List<scalar> 
278640
(
299.379
299.367
299.368
299.37
299.372
299.374
299.375
299.376
299.377
299.377
299.377
299.377
299.376
299.375
299.374
299.372
299.37
299.368
299.367
299.379
299.51
299.5
299.501
299.503
299.504
299.506
299.507
299.508
299.508
299.509
299.509
299.508
299.508
299.507
299.506
299.504
299.503
299.501
299.5
299.51
297.808
297.776
297.779
297.782
297.786
297.789
297.792
297.794
297.796
297.796
297.796
297.796
297.794
297.792
297.789
297.786
297.782
297.779
297.776
297.808
299.536
299.528
299.529
299.53
299.531
299.533
299.534
299.534
299.535
299.535
299.535
299.535
299.534
299.534
299.533
299.531
299.53
299.529
299.528
299.536
297.676
297.649
297.651
297.654
297.658
297.661
297.664
297.666
297.667
297.668
297.668
297.667
297.666
297.664
297.661
297.658
297.654
297.651
297.649
297.676
299.06
299.043
299.045
299.047
299.05
299.052
299.054
299.055
299.057
299.057
299.057
299.057
299.055
299.054
299.052
299.05
299.047
299.045
299.043
299.06
299.161
299.146
299.148
299.15
299.152
299.154
299.156
299.158
299.159
299.159
299.159
299.159
299.158
299.156
299.154
299.152
299.15
299.148
299.146
299.161
298.587
298.57
298.572
298.575
298.577
298.58
298.583
298.584
298.586
298.587
298.587
298.586
298.584
298.583
298.58
298.577
298.575
298.572
298.57
298.587
299.594
299.59
299.59
299.591
299.592
299.592
299.593
299.594
299.594
299.594
299.594
299.594
299.594
299.593
299.592
299.592
299.591
299.59
299.59
299.594
299.589
299.585
299.585
299.586
299.587
299.588
299.589
299.589
299.59
299.59
299.59
299.59
299.589
299.589
299.588
299.587
299.586
299.585
299.585
299.589
299.285
299.273
299.275
299.277
299.278
299.28
299.282
299.283
299.284
299.285
299.285
299.284
299.283
299.282
299.28
299.278
299.277
299.275
299.273
299.285
298.346
298.325
298.328
298.331
298.334
298.337
298.339
298.341
298.343
298.343
298.343
298.343
298.341
298.339
298.337
298.334
298.331
298.328
298.325
298.346
298.776
298.758
298.76
298.762
298.765
298.768
298.77
298.772
298.773
298.774
298.774
298.773
298.772
298.77
298.768
298.765
298.762
298.76
298.758
298.776
299.234
299.223
299.225
299.226
299.228
299.23
299.232
299.234
299.234
299.235
299.235
299.234
299.234
299.232
299.23
299.228
299.226
299.225
299.223
299.234
298.899
298.884
298.886
298.888
298.891
298.893
298.895
298.897
298.898
298.899
298.899
298.898
298.897
298.895
298.893
298.891
298.888
298.886
298.884
298.899
299.485
299.475
299.476
299.477
299.479
299.48
299.482
299.483
299.483
299.484
299.484
299.483
299.483
299.482
299.48
299.479
299.477
299.476
299.475
299.485
299.576
299.57
299.571
299.572
299.573
299.574
299.575
299.575
299.576
299.576
299.576
299.576
299.575
299.575
299.574
299.573
299.572
299.571
299.57
299.576
298
297.97
297.973
297.976
297.98
297.983
297.986
297.988
297.99
297.99
297.99
297.99
297.988
297.986
297.983
297.98
297.976
297.973
297.97
298
298.477
298.458
298.461
298.463
298.466
298.469
298.472
298.474
298.475
298.476
298.476
298.475
298.474
298.472
298.469
298.466
298.463
298.461
298.458
298.477
299.583
299.577
299.578
299.579
299.58
299.581
299.582
299.583
299.583
299.583
299.583
299.583
299.583
299.582
299.581
299.58
299.579
299.578
299.577
299.583
299.457
299.449
299.45
299.452
299.453
299.455
299.456
299.457
299.458
299.458
299.458
299.458
299.457
299.456
299.455
299.453
299.452
299.45
299.449
299.457
299.522
299.514
299.515
299.516
299.518
299.519
299.52
299.521
299.522
299.522
299.522
299.522
299.521
299.52
299.519
299.518
299.516
299.515
299.514
299.522
299.349
299.338
299.339
299.341
299.343
299.345
299.347
299.348
299.349
299.349
299.349
299.349
299.348
299.347
299.345
299.343
299.341
299.339
299.338
299.349
299.483
299.473
299.474
299.476
299.477
299.479
299.48
299.481
299.482
299.483
299.483
299.482
299.481
299.48
299.479
299.477
299.476
299.474
299.473
299.483
299.078
299.061
299.063
299.065
299.068
299.07
299.072
299.074
299.075
299.076
299.076
299.075
299.074
299.072
299.07
299.068
299.065
299.063
299.061
299.078
299.616
299.612
299.613
299.613
299.614
299.615
299.615
299.616
299.616
299.616
299.616
299.616
299.616
299.615
299.615
299.614
299.613
299.613
299.612
299.616
298.263
298.242
298.244
298.247
298.25
298.253
298.256
298.258
298.26
298.261
298.261
298.26
298.258
298.256
298.253
298.25
298.247
298.244
298.242
298.263
297.182
297.168
297.17
297.173
297.176
297.178
297.181
297.183
297.184
297.185
297.185
297.184
297.183
297.181
297.178
297.176
297.173
297.17
297.168
297.182
299.598
299.593
299.594
299.595
299.595
299.596
299.597
299.598
299.598
299.598
299.598
299.598
299.598
299.597
299.596
299.595
299.595
299.594
299.593
299.598
299.578
299.573
299.574
299.575
299.576
299.577
299.577
299.578
299.579
299.579
299.579
299.579
299.578
299.577
299.577
299.576
299.575
299.574
299.573
299.578
299.005
298.991
298.993
298.995
298.998
299
299.002
299.004
299.005
299.006
299.006
299.005
299.004
299.002
299
298.998
298.995
298.993
298.991
299.005
298.699
298.683
298.685
298.688
298.69
298.693
298.695
298.697
298.698
298.699
298.699
298.698
298.697
298.695
298.693
298.69
298.688
298.685
298.683
298.699
297.483
297.466
297.468
297.471
297.474
297.477
297.479
297.481
297.483
297.484
297.484
297.483
297.481
297.479
297.477
297.474
297.471
297.468
297.466
297.483
299.517
299.509
299.51
299.511
299.513
299.514
299.515
299.516
299.517
299.517
299.517
299.517
299.516
299.515
299.514
299.513
299.511
299.51
299.509
299.517
299.441
299.435
299.436
299.437
299.438
299.44
299.441
299.442
299.443
299.443
299.443
299.443
299.442
299.441
299.44
299.438
299.437
299.436
299.435
299.441
299.303
299.294
299.296
299.297
299.299
299.301
299.302
299.304
299.304
299.305
299.305
299.304
299.304
299.302
299.301
299.299
299.297
299.296
299.294
299.303
299.177
299.165
299.166
299.168
299.17
299.173
299.174
299.176
299.177
299.178
299.178
299.177
299.176
299.174
299.173
299.17
299.168
299.166
299.165
299.177
299.621
299.619
299.62
299.62
299.621
299.621
299.622
299.622
299.622
299.622
299.622
299.622
299.622
299.622
299.621
299.621
299.62
299.62
299.619
299.621
296.96
296.953
296.955
296.957
296.959
296.962
296.964
296.966
296.967
296.968
296.968
296.967
296.966
296.964
296.962
296.959
296.957
296.955
296.953
296.96
289.339
289.339
289.339
289.339
289.339
289.339
289.339
289.339
289.339
289.34
289.34
289.34
289.339
289.339
289.339
289.339
289.339
289.339
289.339
289.339
288.854
288.854
288.854
288.854
288.854
288.854
288.854
288.854
288.854
288.854
288.854
288.854
288.854
288.854
288.854
288.854
288.854
288.854
288.854
288.854
290.348
290.349
290.349
290.349
290.349
290.35
290.35
290.35
290.35
290.35
290.35
290.35
290.35
290.35
290.35
290.349
290.349
290.349
290.349
290.348
291.115
291.115
291.116
291.116
291.117
291.117
291.117
291.118
291.118
291.118
291.118
291.118
291.118
291.117
291.117
291.117
291.116
291.116
291.115
291.115
296.155
296.146
296.148
296.15
296.152
296.154
296.156
296.158
296.159
296.159
296.159
296.159
296.158
296.156
296.154
296.152
296.15
296.147
296.146
296.155
295.563
295.563
295.564
295.565
295.567
295.569
295.571
295.572
295.574
295.574
295.574
295.574
295.572
295.571
295.569
295.567
295.566
295.564
295.564
295.563
293.614
293.615
293.615
293.616
293.618
293.619
293.62
293.621
293.622
293.622
293.622
293.622
293.621
293.62
293.619
293.618
293.617
293.615
293.615
293.614
295.917
295.913
295.911
295.911
295.912
295.914
295.915
295.917
295.918
295.919
295.919
295.918
295.917
295.915
295.914
295.912
295.911
295.911
295.913
295.917
291.678
291.678
291.679
291.679
291.68
291.68
291.681
291.681
291.682
291.682
291.682
291.682
291.681
291.681
291.68
291.68
291.679
291.679
291.678
291.678
289.287
289.287
289.288
289.288
289.288
289.288
289.288
289.288
289.288
289.288
289.288
289.288
289.288
289.288
289.288
289.288
289.288
289.288
289.288
289.288
289.689
289.689
289.689
289.689
289.689
289.689
289.689
289.689
289.689
289.69
289.69
289.689
289.689
289.689
289.689
289.689
289.689
289.689
289.689
289.689
291.829
291.833
291.835
291.837
291.839
291.841
291.844
291.846
291.847
291.848
291.848
291.847
291.846
291.844
291.841
291.839
291.837
291.835
291.833
291.829
296.295
296.286
296.288
296.29
296.292
296.295
296.297
296.298
296.3
296.3
296.3
296.3
296.298
296.297
296.295
296.292
296.29
296.288
296.286
296.295
296.725
296.72
296.721
296.723
296.725
296.728
296.73
296.732
296.733
296.734
296.734
296.733
296.732
296.73
296.728
296.725
296.723
296.721
296.72
296.725
291.917
291.917
291.918
291.919
291.919
291.92
291.921
291.922
291.922
291.923
291.923
291.922
291.922
291.921
291.92
291.919
291.919
291.918
291.917
291.917
292.37
292.371
292.371
292.372
292.373
292.374
292.375
292.375
292.376
292.376
292.376
292.376
292.375
292.374
292.374
292.373
292.372
292.371
292.371
292.37
288.68
288.68
288.68
288.68
288.68
288.68
288.68
288.68
288.68
288.68
288.68
288.68
288.68
288.68
288.68
288.68
288.68
288.68
288.68
288.68
291.497
291.497
291.497
291.498
291.498
291.499
291.499
291.5
291.5
291.5
291.5
291.5
291.5
291.499
291.499
291.498
291.498
291.497
291.497
291.497
290.479
290.479
290.479
290.48
290.48
290.48
290.48
290.481
290.481
290.481
290.481
290.481
290.481
290.48
290.48
290.48
290.48
290.479
290.479
290.479
291.303
291.303
291.303
291.304
291.304
291.304
291.305
291.305
291.305
291.306
291.306
291.305
291.305
291.305
291.304
291.304
291.304
291.303
291.303
291.303
295.776
295.774
295.773
295.774
295.775
295.777
295.779
295.78
295.782
295.782
295.782
295.782
295.78
295.779
295.777
295.775
295.774
295.773
295.774
295.776
288.99
288.99
288.99
288.99
288.99
288.99
288.99
288.99
288.99
288.99
288.99
288.99
288.99
288.99
288.99
288.99
288.99
288.99
288.99
288.99
293.073
293.073
293.074
293.075
293.076
293.077
293.078
293.079
293.079
293.079
293.079
293.079
293.079
293.078
293.077
293.076
293.075
293.074
293.073
293.073
290.566
290.567
290.567
290.567
290.567
290.568
290.568
290.568
290.568
290.569
290.569
290.568
290.568
290.568
290.568
290.567
290.567
290.567
290.567
290.566
290.79
290.79
290.791
290.791
290.791
290.792
290.792
290.792
290.792
290.792
290.792
290.792
290.792
290.792
290.791
290.791
290.791
290.791
290.79
290.79
290.946
290.947
290.947
290.947
290.948
290.948
290.948
290.949
290.949
290.949
290.949
290.949
290.949
290.948
290.948
290.948
290.947
290.947
290.947
290.946
289.472
289.472
289.472
289.473
289.473
289.473
289.473
289.473
289.473
289.473
289.473
289.473
289.473
289.473
289.473
289.473
289.473
289.473
289.472
289.472
288.752
288.753
288.753
288.753
288.753
288.753
288.753
288.753
288.753
288.753
288.753
288.753
288.753
288.753
288.753
288.753
288.753
288.753
288.753
288.752
291.723
291.724
291.724
291.725
291.725
291.726
291.727
291.727
291.728
291.728
291.728
291.728
291.727
291.727
291.726
291.725
291.725
291.724
291.724
291.723
293.777
293.778
293.778
293.78
293.781
293.782
293.784
293.785
293.786
293.786
293.786
293.786
293.785
293.784
293.783
293.781
293.78
293.779
293.778
293.778
293.726
293.726
293.726
293.727
293.728
293.729
293.731
293.732
293.733
293.733
293.733
293.733
293.732
293.731
293.73
293.728
293.727
293.727
293.726
293.727
290.208
290.208
290.208
290.208
290.208
290.209
290.209
290.209
290.209
290.209
290.209
290.209
290.209
290.209
290.209
290.209
290.208
290.208
290.208
290.208
295.163
295.166
295.168
295.17
295.172
295.175
295.177
295.179
295.181
295.181
295.181
295.181
295.179
295.177
295.175
295.172
295.17
295.168
295.166
295.163
288.923
288.923
288.923
288.923
288.923
288.923
288.923
288.923
288.923
288.923
288.923
288.923
288.923
288.923
288.923
288.923
288.923
288.923
288.923
288.923
296.546
296.532
296.533
296.536
296.539
296.541
296.543
296.545
296.547
296.547
296.547
296.547
296.545
296.543
296.541
296.539
296.536
296.533
296.532
296.546
289.089
289.089
289.089
289.089
289.089
289.089
289.089
289.089
289.089
289.089
289.089
289.089
289.089
289.089
289.089
289.089
289.089
289.089
289.089
289.089
292.512
292.517
292.519
292.521
292.523
292.525
292.527
292.529
292.53
292.53
292.53
292.53
292.528
292.527
292.525
292.522
292.52
292.519
292.517
292.512
290.277
290.277
290.277
290.278
290.278
290.278
290.278
290.278
290.279
290.279
290.279
290.279
290.278
290.278
290.278
290.278
290.278
290.277
290.277
290.277
296.053
296.045
296.045
296.047
296.049
296.051
296.054
296.056
296.057
296.058
296.058
296.057
296.056
296.054
296.051
296.049
296.047
296.045
296.045
296.053
289.991
289.991
289.991
289.991
289.992
289.992
289.992
289.992
289.992
289.992
289.992
289.992
289.992
289.992
289.992
289.992
289.991
289.991
289.991
289.991
290.103
290.104
290.104
290.104
290.104
290.104
290.104
290.104
290.104
290.105
290.105
290.104
290.104
290.104
290.104
290.104
290.104
290.104
290.104
290.103
291.725
291.726
291.726
291.727
291.727
291.728
291.729
291.73
291.73
291.73
291.73
291.73
291.73
291.729
291.728
291.727
291.727
291.726
291.726
291.725
289.889
289.889
289.889
289.889
289.889
289.889
289.889
289.889
289.889
289.889
289.889
289.889
289.889
289.889
289.889
289.889
289.889
289.889
289.889
289.889
293.337
293.337
293.338
293.338
293.339
293.341
293.342
293.344
293.345
293.345
293.345
293.345
293.343
293.342
293.34
293.339
293.338
293.337
293.336
293.337
292.681
292.682
292.683
292.683
292.684
292.685
292.686
292.687
292.687
292.687
292.687
292.687
292.687
292.686
292.685
292.684
292.683
292.683
292.682
292.681
291.75
291.751
291.751
291.752
291.753
291.753
291.754
291.755
291.755
291.755
291.755
291.755
291.755
291.754
291.753
291.753
291.752
291.751
291.751
291.75
293.313
293.314
293.315
293.315
293.316
293.317
293.318
293.319
293.32
293.32
293.32
293.32
293.319
293.318
293.317
293.317
293.316
293.315
293.314
293.314
291.751
291.756
291.756
291.757
291.758
291.759
291.761
291.762
291.763
291.763
291.763
291.763
291.762
291.761
291.76
291.759
291.758
291.757
291.756
291.752
291.578
291.578
291.579
291.579
291.579
291.58
291.58
291.581
291.581
291.581
291.581
291.581
291.581
291.58
291.58
291.579
291.579
291.579
291.578
291.578
289.164
289.164
289.165
289.165
289.165
289.165
289.165
289.165
289.165
289.165
289.165
289.165
289.165
289.165
289.165
289.165
289.165
289.165
289.165
289.164
289.558
289.558
289.558
289.558
289.558
289.558
289.558
289.558
289.558
289.558
289.558
289.558
289.558
289.558
289.558
289.558
289.558
289.558
289.558
289.558
290.396
290.397
290.397
290.397
290.397
290.397
290.398
290.398
290.398
290.398
290.398
290.398
290.398
290.398
290.397
290.397
290.397
290.397
290.397
290.396
291.714
291.714
291.715
291.715
291.716
291.716
291.717
291.717
291.717
291.718
291.718
291.717
291.717
291.717
291.716
291.716
291.715
291.715
291.714
291.714
296.442
296.433
296.435
296.437
296.439
296.442
296.444
296.446
296.447
296.447
296.447
296.447
296.446
296.444
296.442
296.439
296.437
296.435
296.433
296.442
290.646
290.646
290.647
290.647
290.647
290.647
290.648
290.648
290.648
290.648
290.648
290.648
290.648
290.648
290.647
290.647
290.647
290.647
290.646
290.646
289.774
289.774
289.775
289.775
289.775
289.775
289.775
289.775
289.775
289.775
289.775
289.775
289.775
289.775
289.775
289.775
289.775
289.774
289.774
289.774
292.038
292.039
292.039
292.04
292.041
292.041
292.042
292.043
292.043
292.043
292.043
292.043
292.043
292.042
292.042
292.041
292.04
292.04
292.039
292.038
291.792
291.793
291.793
291.794
291.794
291.795
291.796
291.797
291.797
291.797
291.797
291.797
291.797
291.796
291.795
291.795
291.794
291.793
291.793
291.792
292.779
292.781
292.782
292.782
292.783
292.784
292.785
292.785
292.786
292.786
292.786
292.786
292.785
292.784
292.783
292.782
292.782
292.781
292.78
292.779
293.193
293.193
293.194
293.194
293.194
293.194
293.194
293.194
293.194
293.195
293.195
293.194
293.194
293.194
293.194
293.194
293.194
293.194
293.193
293.193
288.967
288.967
288.967
288.966
288.966
288.967
288.967
288.966
288.966
288.966
288.967
288.966
288.966
288.966
288.967
288.967
288.967
288.967
288.967
288.967
292.908
292.909
292.909
292.909
292.909
292.909
292.909
292.909
292.909
292.909
292.909
292.909
292.908
292.908
292.909
292.909
292.909
292.909
292.908
292.908
288.446
288.446
288.446
288.446
288.446
288.446
288.446
288.446
288.446
288.446
288.446
288.446
288.446
288.446
288.446
288.446
288.446
288.446
288.446
288.446
288.585
288.585
288.585
288.585
288.585
288.585
288.585
288.585
288.585
288.585
288.585
288.585
288.585
288.585
288.585
288.585
288.585
288.585
288.585
288.585
295.615
295.61
295.608
295.608
295.608
295.609
295.609
295.61
295.61
295.61
295.61
295.61
295.61
295.609
295.609
295.608
295.608
295.608
295.611
295.615
291.886
291.89
291.891
291.891
291.892
291.892
291.893
291.893
291.893
291.894
291.894
291.893
291.893
291.893
291.892
291.892
291.891
291.891
291.89
291.886
295.645
295.64
295.637
295.636
295.636
295.636
295.637
295.637
295.638
295.638
295.638
295.638
295.637
295.637
295.636
295.636
295.636
295.637
295.64
295.646
290.99
290.99
290.99
290.99
290.99
290.99
290.99
290.99
290.99
290.99
290.99
290.99
290.99
290.99
290.99
290.99
290.99
290.99
290.99
290.99
292.105
292.107
292.107
292.107
292.107
292.107
292.107
292.107
292.107
292.107
292.107
292.107
292.107
292.107
292.107
292.107
292.107
292.107
292.107
292.104
288.491
288.492
288.492
288.492
288.492
288.491
288.491
288.491
288.491
288.491
288.491
288.491
288.491
288.491
288.491
288.492
288.492
288.492
288.492
288.491
293.741
293.741
293.741
293.741
293.741
293.742
293.742
293.742
293.742
293.742
293.742
293.742
293.742
293.742
293.742
293.742
293.741
293.741
293.741
293.741
293.968
293.968
293.968
293.969
293.969
293.97
293.971
293.971
293.971
293.971
293.971
293.971
293.971
293.971
293.97
293.97
293.969
293.968
293.968
293.968
295.346
295.343
295.343
295.343
295.343
295.343
295.344
295.344
295.344
295.344
295.344
295.344
295.344
295.344
295.343
295.343
295.343
295.343
295.343
295.346
293.708
293.707
293.707
293.708
293.708
293.708
293.708
293.708
293.709
293.709
293.709
293.709
293.708
293.708
293.708
293.708
293.708
293.707
293.707
293.708
288.459
288.46
288.46
288.46
288.46
288.46
288.46
288.46
288.46
288.46
288.46
288.46
288.46
288.46
288.46
288.46
288.46
288.46
288.46
288.459
293.984
293.984
293.983
293.984
293.984
293.984
293.985
293.985
293.985
293.985
293.985
293.985
293.985
293.985
293.984
293.984
293.984
293.984
293.984
293.984
291.339
291.337
291.337
291.337
291.337
291.337
291.337
291.337
291.337
291.337
291.337
291.337
291.337
291.337
291.337
291.337
291.337
291.337
291.337
291.339
290.303
290.304
290.304
290.304
290.304
290.304
290.304
290.305
290.305
290.305
290.305
290.305
290.305
290.304
290.304
290.304
290.304
290.304
290.304
290.303
290.485
290.486
290.486
290.486
290.486
290.486
290.486
290.486
290.486
290.486
290.486
290.486
290.486
290.486
290.486
290.486
290.486
290.486
290.486
290.485
292.522
292.522
292.522
292.522
292.522
292.521
292.521
292.521
292.521
292.521
292.521
292.521
292.521
292.521
292.521
292.522
292.522
292.522
292.522
292.522
292.757
292.758
292.758
292.758
292.758
292.758
292.758
292.758
292.758
292.758
292.758
292.758
292.758
292.758
292.758
292.758
292.758
292.758
292.758
292.757
290.698
290.7
290.7
290.7
290.7
290.7
290.701
290.701
290.701
290.701
290.701
290.701
290.701
290.701
290.7
290.7
290.7
290.7
290.7
290.698
295.296
295.3
295.3
295.3
295.301
295.301
295.301
295.301
295.302
295.302
295.302
295.302
295.301
295.301
295.301
295.301
295.3
295.3
295.3
295.297
292.752
292.754
292.754
292.754
292.754
292.754
292.754
292.754
292.754
292.754
292.754
292.754
292.754
292.754
292.754
292.754
292.754
292.754
292.754
292.752
292.857
292.857
292.858
292.858
292.858
292.858
292.858
292.858
292.858
292.858
292.858
292.858
292.858
292.858
292.858
292.858
292.858
292.858
292.857
292.857
292.843
292.843
292.843
292.843
292.843
292.843
292.843
292.843
292.843
292.843
292.843
292.843
292.843
292.843
292.843
292.843
292.843
292.843
292.843
292.843
289.923
289.924
289.924
289.924
289.924
289.924
289.924
289.924
289.924
289.924
289.924
289.924
289.924
289.924
289.924
289.924
289.924
289.924
289.924
289.923
291.986
291.985
291.985
291.985
291.985
291.985
291.985
291.984
291.984
291.984
291.984
291.984
291.984
291.985
291.985
291.985
291.985
291.985
291.985
291.986
283.605
283.605
283.605
283.605
283.605
283.605
283.605
283.605
283.605
283.605
283.605
283.605
283.605
283.605
283.605
283.605
283.605
283.605
283.605
283.605
283.975
283.975
283.975
283.975
283.975
283.975
283.975
283.975
283.975
283.975
283.975
283.975
283.975
283.975
283.975
283.975
283.975
283.975
283.975
283.975
284.01
284.01
284.011
284.011
284.011
284.01
284.01
284.01
284.01
284.01
284.01
284.011
284.011
284.011
284.011
284.011
284.011
284.011
284.011
284.01
283.766
283.766
283.766
283.766
283.766
283.766
283.766
283.766
283.766
283.766
283.766
283.766
283.766
283.766
283.766
283.766
283.766
283.766
283.766
283.766
283.766
283.768
283.768
283.768
283.769
283.769
283.769
283.769
283.769
283.769
283.769
283.769
283.769
283.769
283.769
283.769
283.769
283.769
283.768
283.766
283.937
283.937
283.937
283.937
283.937
283.937
283.937
283.937
283.937
283.937
283.937
283.937
283.937
283.937
283.937
283.937
283.937
283.937
283.937
283.937
283.355
283.357
283.357
283.357
283.357
283.357
283.357
283.357
283.357
283.358
283.358
283.357
283.357
283.357
283.357
283.357
283.357
283.357
283.357
283.355
283.713
283.713
283.713
283.713
283.713
283.713
283.713
283.713
283.713
283.713
283.713
283.713
283.713
283.713
283.713
283.713
283.713
283.713
283.713
283.713
283.31
283.31
283.31
283.31
283.309
283.309
283.309
283.309
283.309
283.309
283.309
283.309
283.309
283.309
283.309
283.309
283.309
283.309
283.309
283.309
282.714
282.713
282.713
282.713
282.713
282.713
282.713
282.713
282.713
282.713
282.714
282.714
282.714
282.714
282.714
282.714
282.714
282.714
282.714
282.714
283.851
283.851
283.851
283.851
283.851
283.851
283.851
283.851
283.851
283.851
283.851
283.851
283.851
283.851
283.851
283.851
283.851
283.851
283.851
283.851
283.387
283.387
283.387
283.387
283.387
283.387
283.387
283.387
283.387
283.387
283.387
283.387
283.387
283.387
283.387
283.387
283.387
283.387
283.387
283.387
283.93
283.93
283.93
283.93
283.93
283.93
283.93
283.93
283.93
283.93
283.93
283.93
283.93
283.93
283.93
283.93
283.93
283.93
283.93
283.93
283.765
283.764
283.764
283.764
283.764
283.764
283.764
283.764
283.764
283.764
283.764
283.764
283.764
283.764
283.764
283.764
283.764
283.764
283.764
283.765
282.748
282.747
282.747
282.747
282.747
282.747
282.747
282.747
282.747
282.747
282.747
282.747
282.747
282.747
282.747
282.747
282.747
282.747
282.747
282.748
282.576
282.576
282.576
282.576
282.576
282.576
282.576
282.576
282.576
282.576
282.576
282.576
282.576
282.576
282.576
282.576
282.576
282.576
282.576
282.576
282.785
282.785
282.785
282.785
282.785
282.785
282.785
282.785
282.785
282.785
282.785
282.785
282.785
282.785
282.785
282.785
282.785
282.785
282.785
282.785
283.853
283.853
283.853
283.853
283.853
283.853
283.853
283.853
283.853
283.853
283.853
283.853
283.853
283.853
283.853
283.853
283.853
283.853
283.853
283.853
283.557
283.557
283.557
283.557
283.557
283.557
283.557
283.557
283.557
283.557
283.557
283.557
283.557
283.557
283.557
283.557
283.557
283.557
283.557
283.557
282.701
282.701
282.701
282.701
282.701
282.701
282.701
282.701
282.701
282.701
282.701
282.701
282.701
282.701
282.701
282.701
282.701
282.701
282.701
282.701
283.584
283.584
283.584
283.584
283.584
283.584
283.584
283.584
283.584
283.584
283.584
283.584
283.584
283.584
283.584
283.584
283.584
283.584
283.584
283.584
282.917
282.917
282.917
282.917
282.917
282.917
282.917
282.917
282.917
282.917
282.917
282.917
282.917
282.917
282.917
282.917
282.917
282.917
282.917
282.917
283.113
283.113
283.113
283.113
283.113
283.113
283.113
283.113
283.113
283.113
283.113
283.113
283.113
283.113
283.113
283.113
283.113
283.113
283.113
283.113
282.475
282.475
282.475
282.475
282.475
282.475
282.475
282.475
282.475
282.475
282.475
282.475
282.475
282.475
282.475
282.475
282.475
282.475
282.475
282.475
283.46
283.46
283.46
283.46
283.46
283.46
283.46
283.46
283.46
283.46
283.46
283.46
283.46
283.46
283.46
283.46
283.46
283.46
283.46
283.46
283.308
283.307
283.307
283.307
283.307
283.307
283.307
283.307
283.307
283.307
283.307
283.307
283.307
283.307
283.307
283.307
283.307
283.307
283.307
283.308
283.283
283.283
283.283
283.283
283.283
283.283
283.283
283.283
283.283
283.283
283.283
283.283
283.283
283.283
283.283
283.283
283.283
283.283
283.283
283.283
283.409
283.409
283.409
283.409
283.409
283.409
283.409
283.409
283.409
283.409
283.409
283.409
283.409
283.409
283.409
283.409
283.409
283.409
283.409
283.409
283.068
283.068
283.068
283.068
283.068
283.068
283.068
283.068
283.068
283.068
283.068
283.068
283.068
283.068
283.068
283.068
283.068
283.068
283.068
283.068
282.911
282.911
282.911
282.911
282.911
282.911
282.911
282.911
282.911
282.911
282.911
282.911
282.911
282.911
282.911
282.911
282.911
282.911
282.911
282.911
283.405
283.404
283.404
283.404
283.404
283.404
283.404
283.404
283.404
283.404
283.404
283.404
283.404
283.404
283.404
283.404
283.404
283.404
283.404
283.405
283.83
283.83
283.83
283.83
283.83
283.83
283.83
283.83
283.83
283.83
283.83
283.83
283.83
283.83
283.83
283.83
283.83
283.83
283.83
283.83
283.582
283.582
283.582
283.582
283.582
283.582
283.582
283.582
283.582
283.582
283.582
283.582
283.582
283.582
283.582
283.582
283.582
283.582
283.582
283.582
282.769
282.769
282.769
282.769
282.769
282.769
282.769
282.769
282.769
282.769
282.769
282.769
282.769
282.769
282.769
282.769
282.769
282.769
282.769
282.769
283.688
283.688
283.688
283.688
283.688
283.688
283.688
283.688
283.688
283.688
283.688
283.688
283.688
283.688
283.688
283.688
283.688
283.688
283.688
283.688
283.979
283.979
283.979
283.979
283.979
283.979
283.979
283.979
283.979
283.979
283.979
283.979
283.979
283.979
283.979
283.979
283.979
283.979
283.979
283.979
283.727
283.727
283.727
283.727
283.727
283.727
283.727
283.727
283.727
283.727
283.727
283.727
283.727
283.727
283.727
283.727
283.727
283.727
283.727
283.727
282.529
282.529
282.529
282.529
282.529
282.529
282.529
282.529
282.529
282.529
282.529
282.529
282.529
282.529
282.529
282.529
282.529
282.529
282.529
282.529
282.432
282.432
282.432
282.432
282.432
282.432
282.432
282.432
282.432
282.432
282.432
282.432
282.432
282.432
282.432
282.432
282.432
282.432
282.432
282.432
282.765
282.765
282.765
282.765
282.765
282.765
282.765
282.765
282.765
282.765
282.765
282.765
282.765
282.765
282.765
282.765
282.765
282.765
282.765
282.765
282.505
282.505
282.505
282.505
282.505
282.505
282.505
282.505
282.505
282.505
282.505
282.505
282.505
282.505
282.505
282.505
282.505
282.505
282.505
282.505
284.015
284.016
284.016
284.016
284.016
284.016
284.016
284.016
284.016
284.016
284.016
284.016
284.016
284.016
284.016
284.016
284.016
284.016
284.016
284.015
282.367
282.367
282.367
282.367
282.367
282.367
282.367
282.367
282.367
282.367
282.367
282.367
282.367
282.367
282.367
282.367
282.367
282.367
282.367
282.367
283.967
283.968
283.968
283.968
283.968
283.968
283.968
283.968
283.968
283.968
283.968
283.968
283.968
283.968
283.968
283.968
283.968
283.968
283.968
283.967
283.172
283.172
283.172
283.172
283.172
283.172
283.172
283.172
283.172
283.172
283.172
283.172
283.172
283.172
283.172
283.172
283.172
283.172
283.172
283.172
281.815
281.815
281.815
281.814
281.814
281.814
281.814
281.814
281.814
281.814
281.814
281.814
281.814
281.814
281.814
281.814
281.814
281.814
281.814
281.815
282.283
282.303
282.304
282.305
282.305
282.305
282.306
282.306
282.306
282.306
282.306
282.306
282.306
282.306
282.305
282.305
282.305
282.304
282.303
282.283
281.959
281.959
281.959
281.959
281.959
281.959
281.959
281.959
281.959
281.959
281.959
281.959
281.959
281.958
281.958
281.958
281.958
281.958
281.958
281.958
282.193
282.193
282.193
282.193
282.193
282.193
282.193
282.193
282.193
282.193
282.193
282.193
282.193
282.193
282.193
282.193
282.193
282.193
282.193
282.193
282.864
282.864
282.864
282.864
282.864
282.864
282.864
282.864
282.864
282.864
282.864
282.864
282.864
282.864
282.864
282.864
282.864
282.864
282.864
282.864
283.167
283.167
283.167
283.167
283.167
283.167
283.167
283.167
283.167
283.167
283.167
283.167
283.167
283.167
283.167
283.167
283.167
283.167
283.167
283.168
283.043
283.043
283.043
283.043
283.043
283.043
283.043
283.043
283.043
283.043
283.043
283.043
283.043
283.043
283.043
283.043
283.043
283.043
283.043
283.043
282.98
282.98
282.98
282.98
282.98
282.98
282.98
282.98
282.98
282.98
282.98
282.98
282.98
282.98
282.98
282.98
282.98
282.98
282.98
282.98
282.291
282.291
282.291
282.291
282.291
282.291
282.291
282.291
282.291
282.291
282.291
282.291
282.291
282.291
282.291
282.291
282.291
282.291
282.291
282.291
282.103
282.103
282.103
282.103
282.103
282.103
282.103
282.103
282.103
282.103
282.103
282.103
282.103
282.103
282.103
282.103
282.103
282.103
282.103
282.103
281.908
281.908
281.908
281.908
281.908
281.908
281.908
281.908
281.908
281.908
281.908
281.908
281.908
281.908
281.908
281.908
281.908
281.908
281.908
281.908
283.747
283.748
283.748
283.748
283.748
283.748
283.749
283.749
283.749
283.749
283.749
283.749
283.749
283.749
283.748
283.748
283.748
283.748
283.748
283.747
283.966
283.966
283.966
283.966
283.966
283.966
283.966
283.966
283.966
283.966
283.966
283.966
283.966
283.966