/*--------------------------------*- C++ -*----------------------------------*\
| =========                 |                                                 |
| \\      /  F ield         | OpenFOAM: The Open Source CFD Toolbox           |
|  \\    /   O peration     | Version:  4.1                                   |
|   \\  /    A nd           | Web:      www.OpenFOAM.org                      |
|    \\/     M anipulation  |                                                 |
\*---------------------------------------------------------------------------*/
FoamFile
{
    version     2.0;
    format      ascii;
    class       volScalarField;
    location    "0.019";
    object      thermo:mu;
}
// * * * * * * * * * * * * * * * * * * * * * * * * * * * * * * * * * * * * * //

dimensions      [1 -1 -1 0 0 0 0];

internalField   nonuniform List<scalar> 
278640
(
6.43487e-05
6.43397e-05
6.43407e-05
6.43419e-05
6.43433e-05
6.43445e-05
6.43457e-05
6.43466e-05
6.43472e-05
6.43475e-05
6.43475e-05
6.43472e-05
6.43466e-05
6.43457e-05
6.43445e-05
6.43433e-05
6.43419e-05
6.43407e-05
6.43397e-05
6.43487e-05
6.44742e-05
6.44671e-05
6.44679e-05
6.44689e-05
6.447e-05
6.4471e-05
6.44719e-05
6.44726e-05
6.44731e-05
6.44734e-05
6.44734e-05
6.44731e-05
6.44726e-05
6.44719e-05
6.4471e-05
6.447e-05
6.44689e-05
6.44679e-05
6.44671e-05
6.44742e-05
6.30174e-05
6.29922e-05
6.29945e-05
6.29971e-05
6.29998e-05
6.30023e-05
6.30045e-05
6.30062e-05
6.30074e-05
6.3008e-05
6.3008e-05
6.30074e-05
6.30062e-05
6.30045e-05
6.30023e-05
6.29997e-05
6.29971e-05
6.29944e-05
6.29922e-05
6.30174e-05
6.44972e-05
6.44911e-05
6.44918e-05
6.44927e-05
6.44936e-05
6.44944e-05
6.44952e-05
6.44959e-05
6.44963e-05
6.44965e-05
6.44965e-05
6.44963e-05
6.44959e-05
6.44952e-05
6.44944e-05
6.44936e-05
6.44927e-05
6.44918e-05
6.44911e-05
6.44972e-05
6.29077e-05
6.28863e-05
6.2888e-05
6.28906e-05
6.28932e-05
6.28956e-05
6.28978e-05
6.28994e-05
6.29006e-05
6.29012e-05
6.29012e-05
6.29006e-05
6.28995e-05
6.28978e-05
6.28956e-05
6.28932e-05
6.28905e-05
6.2888e-05
6.28862e-05
6.29076e-05
6.407e-05
6.40571e-05
6.40584e-05
6.40602e-05
6.4062e-05
6.40637e-05
6.40653e-05
6.40665e-05
6.40674e-05
6.40678e-05
6.40678e-05
6.40674e-05
6.40665e-05
6.40653e-05
6.40637e-05
6.4062e-05
6.40602e-05
6.40584e-05
6.40571e-05
6.407e-05
6.41582e-05
6.4147e-05
6.41483e-05
6.41499e-05
6.41516e-05
6.41533e-05
6.41547e-05
6.41559e-05
6.41567e-05
6.41571e-05
6.41571e-05
6.41567e-05
6.41559e-05
6.41547e-05
6.41533e-05
6.41516e-05
6.41499e-05
6.41483e-05
6.4147e-05
6.41582e-05
6.3664e-05
6.36505e-05
6.3652e-05
6.36541e-05
6.36563e-05
6.36584e-05
6.36602e-05
6.36617e-05
6.36628e-05
6.36633e-05
6.36633e-05
6.36628e-05
6.36617e-05
6.36602e-05
6.36584e-05
6.36563e-05
6.36541e-05
6.3652e-05
6.36505e-05
6.3664e-05
6.45563e-05
6.4553e-05
6.45534e-05
6.4554e-05
6.45546e-05
6.45551e-05
6.45556e-05
6.4556e-05
6.45563e-05
6.45564e-05
6.45564e-05
6.45563e-05
6.4556e-05
6.45556e-05
6.45551e-05
6.45546e-05
6.4554e-05
6.45534e-05
6.4553e-05
6.45563e-05
6.45487e-05
6.45451e-05
6.45456e-05
6.45462e-05
6.45469e-05
6.45476e-05
6.45482e-05
6.45486e-05
6.45489e-05
6.45491e-05
6.45491e-05
6.45489e-05
6.45486e-05
6.45482e-05
6.45476e-05
6.45469e-05
6.45462e-05
6.45456e-05
6.45451e-05
6.45487e-05
6.42665e-05
6.42577e-05
6.42587e-05
6.42601e-05
6.42615e-05
6.42628e-05
6.42641e-05
6.42651e-05
6.42657e-05
6.42661e-05
6.42661e-05
6.42657e-05
6.42651e-05
6.42641e-05
6.42628e-05
6.42615e-05
6.42601e-05
6.42587e-05
6.42577e-05
6.42665e-05
6.34626e-05
6.34469e-05
6.34486e-05
6.34509e-05
6.34532e-05
6.34555e-05
6.34574e-05
6.3459e-05
6.34601e-05
6.34607e-05
6.34607e-05
6.34601e-05
6.3459e-05
6.34574e-05
6.34555e-05
6.34532e-05
6.34509e-05
6.34486e-05
6.34469e-05
6.34625e-05
6.38238e-05
6.38096e-05
6.38111e-05
6.38131e-05
6.38153e-05
6.38173e-05
6.38191e-05
6.38205e-05
6.38215e-05
6.3822e-05
6.3822e-05
6.38215e-05
6.38205e-05
6.38191e-05
6.38173e-05
6.38153e-05
6.38131e-05
6.38111e-05
6.38096e-05
6.38238e-05
6.42189e-05
6.42105e-05
6.42115e-05
6.4213e-05
6.42145e-05
6.42159e-05
6.42172e-05
6.42183e-05
6.4219e-05
6.42194e-05
6.42194e-05
6.4219e-05
6.42183e-05
6.42172e-05
6.42159e-05
6.42145e-05
6.4213e-05
6.42115e-05
6.42105e-05
6.42189e-05
6.39271e-05
6.39151e-05
6.39165e-05
6.39184e-05
6.39204e-05
6.39223e-05
6.3924e-05
6.39253e-05
6.39262e-05
6.39267e-05
6.39267e-05
6.39262e-05
6.39253e-05
6.3924e-05
6.39223e-05
6.39204e-05
6.39184e-05
6.39165e-05
6.39151e-05
6.39271e-05
6.44445e-05
6.4437e-05
6.44378e-05
6.44389e-05
6.44401e-05
6.44412e-05
6.44421e-05
6.44429e-05
6.44435e-05
6.44438e-05
6.44438e-05
6.44435e-05
6.44429e-05
6.44421e-05
6.44412e-05
6.44401e-05
6.44389e-05
6.44378e-05
6.4437e-05
6.44445e-05
6.45325e-05
6.45281e-05
6.45287e-05
6.45295e-05
6.45303e-05
6.45311e-05
6.45318e-05
6.45323e-05
6.45327e-05
6.45329e-05
6.45329e-05
6.45327e-05
6.45323e-05
6.45318e-05
6.45311e-05
6.45303e-05
6.45295e-05
6.45287e-05
6.45281e-05
6.45325e-05
6.31755e-05
6.3152e-05
6.31539e-05
6.31566e-05
6.31593e-05
6.31619e-05
6.31641e-05
6.31659e-05
6.31671e-05
6.31677e-05
6.31677e-05
6.31671e-05
6.31659e-05
6.31641e-05
6.31619e-05
6.31593e-05
6.31566e-05
6.31539e-05
6.3152e-05
6.31755e-05
6.35716e-05
6.35569e-05
6.35586e-05
6.35608e-05
6.3563e-05
6.35652e-05
6.35672e-05
6.35687e-05
6.35698e-05
6.35704e-05
6.35704e-05
6.35698e-05
6.35687e-05
6.35672e-05
6.35652e-05
6.3563e-05
6.35608e-05
6.35586e-05
6.3557e-05
6.35716e-05
6.45416e-05
6.45373e-05
6.45378e-05
6.45385e-05
6.45393e-05
6.454e-05
6.45406e-05
6.45411e-05
6.45415e-05
6.45417e-05
6.45417e-05
6.45415e-05
6.45411e-05
6.45406e-05
6.454e-05
6.45393e-05
6.45385e-05
6.45378e-05
6.45373e-05
6.45416e-05
6.44148e-05
6.44088e-05
6.44096e-05
6.44107e-05
6.44119e-05
6.4413e-05
6.4414e-05
6.44149e-05
6.44155e-05
6.44158e-05
6.44158e-05
6.44155e-05
6.44149e-05
6.4414e-05
6.4413e-05
6.44119e-05
6.44107e-05
6.44096e-05
6.44088e-05
6.44148e-05
6.448e-05
6.4474e-05
6.44747e-05
6.44757e-05
6.44767e-05
6.44777e-05
6.44786e-05
6.44793e-05
6.44798e-05
6.448e-05
6.448e-05
6.44798e-05
6.44793e-05
6.44786e-05
6.44777e-05
6.44767e-05
6.44757e-05
6.44747e-05
6.4474e-05
6.448e-05
6.43194e-05
6.43112e-05
6.43122e-05
6.43135e-05
6.43149e-05
6.43163e-05
6.43176e-05
6.43186e-05
6.43192e-05
6.43196e-05
6.43196e-05
6.43192e-05
6.43186e-05
6.43176e-05
6.43163e-05
6.43149e-05
6.43135e-05
6.43122e-05
6.43112e-05
6.43194e-05
6.44392e-05
6.4432e-05
6.44328e-05
6.44339e-05
6.44351e-05
6.44363e-05
6.44373e-05
6.44382e-05
6.44388e-05
6.44391e-05
6.44391e-05
6.44388e-05
6.44382e-05
6.44373e-05
6.44363e-05
6.44351e-05
6.44339e-05
6.44328e-05
6.4432e-05
6.44392e-05
6.40772e-05
6.40646e-05
6.40659e-05
6.40678e-05
6.40697e-05
6.40715e-05
6.40731e-05
6.40744e-05
6.40753e-05
6.40757e-05
6.40757e-05
6.40753e-05
6.40744e-05
6.40731e-05
6.40715e-05
6.40697e-05
6.40678e-05
6.40659e-05
6.40646e-05
6.40772e-05
6.45746e-05
6.45722e-05
6.45726e-05
6.45731e-05
6.45736e-05
6.45741e-05
6.45745e-05
6.45749e-05
6.45751e-05
6.45753e-05
6.45753e-05
6.45751e-05
6.45749e-05
6.45745e-05
6.45741e-05
6.45736e-05
6.45731e-05
6.45726e-05
6.45722e-05
6.45746e-05
6.33906e-05
6.33743e-05
6.3376e-05
6.33784e-05
6.33809e-05
6.33832e-05
6.33853e-05
6.33869e-05
6.33881e-05
6.33887e-05
6.33887e-05
6.33881e-05
6.33869e-05
6.33853e-05
6.33832e-05
6.33809e-05
6.33784e-05
6.3376e-05
6.33743e-05
6.33907e-05
6.25096e-05
6.2499e-05
6.25004e-05
6.25024e-05
6.25046e-05
6.25067e-05
6.25086e-05
6.25101e-05
6.25111e-05
6.25117e-05
6.25117e-05
6.25111e-05
6.25101e-05
6.25086e-05
6.25067e-05
6.25046e-05
6.25024e-05
6.25004e-05
6.2499e-05
6.25096e-05
6.4557e-05
6.45538e-05
6.45542e-05
6.45548e-05
6.45554e-05
6.4556e-05
6.45565e-05
6.4557e-05
6.45573e-05
6.45574e-05
6.45574e-05
6.45573e-05
6.4557e-05
6.45565e-05
6.4556e-05
6.45554e-05
6.45548e-05
6.45542e-05
6.45538e-05
6.4557e-05
6.45316e-05
6.45277e-05
6.45282e-05
6.4529e-05
6.45298e-05
6.45305e-05
6.45312e-05
6.45318e-05
6.45322e-05
6.45324e-05
6.45324e-05
6.45322e-05
6.45318e-05
6.45312e-05
6.45305e-05
6.45298e-05
6.4529e-05
6.45282e-05
6.45277e-05
6.45316e-05
6.40134e-05
6.40026e-05
6.40039e-05
6.40057e-05
6.40075e-05
6.40094e-05
6.4011e-05
6.40123e-05
6.40132e-05
6.40136e-05
6.40136e-05
6.40132e-05
6.40123e-05
6.4011e-05
6.40094e-05
6.40075e-05
6.40057e-05
6.40039e-05
6.40026e-05
6.40134e-05
6.37575e-05
6.3745e-05
6.37465e-05
6.37484e-05
6.37505e-05
6.37524e-05
6.37542e-05
6.37555e-05
6.37565e-05
6.3757e-05
6.3757e-05
6.37565e-05
6.37555e-05
6.37541e-05
6.37524e-05
6.37504e-05
6.37484e-05
6.37465e-05
6.3745e-05
6.37575e-05
6.27518e-05
6.27382e-05
6.27398e-05
6.27421e-05
6.27444e-05
6.27467e-05
6.27487e-05
6.27503e-05
6.27514e-05
6.2752e-05
6.2752e-05
6.27514e-05
6.27502e-05
6.27486e-05
6.27466e-05
6.27443e-05
6.2742e-05
6.27397e-05
6.27381e-05
6.27516e-05
6.44726e-05
6.44667e-05
6.44674e-05
6.44684e-05
6.44694e-05
6.44704e-05
6.44712e-05
6.4472e-05
6.44725e-05
6.44727e-05
6.44727e-05
6.44725e-05
6.4472e-05
6.44712e-05
6.44704e-05
6.44694e-05
6.44684e-05
6.44674e-05
6.44667e-05
6.44726e-05
6.43996e-05
6.43947e-05
6.43954e-05
6.43964e-05
6.43975e-05
6.43986e-05
6.43996e-05
6.44004e-05
6.4401e-05
6.44013e-05
6.44013e-05
6.4401e-05
6.44004e-05
6.43996e-05
6.43986e-05
6.43975e-05
6.43964e-05
6.43954e-05
6.43947e-05
6.43996e-05
6.42753e-05
6.4269e-05
6.42699e-05
6.42711e-05
6.42725e-05
6.42738e-05
6.4275e-05
6.42759e-05
6.42766e-05
6.42769e-05
6.42769e-05
6.42766e-05
6.42759e-05
6.4275e-05
6.42738e-05
6.42725e-05
6.42711e-05
6.42699e-05
6.4269e-05
6.42753e-05
6.41652e-05
6.41556e-05
6.41568e-05
6.41583e-05
6.416e-05
6.41616e-05
6.4163e-05
6.41641e-05
6.4165e-05
6.41654e-05
6.41654e-05
6.4165e-05
6.41641e-05
6.4163e-05
6.41616e-05
6.416e-05
6.41583e-05
6.41568e-05
6.41556e-05
6.41652e-05
6.45813e-05
6.45797e-05
6.458e-05
6.45804e-05
6.45808e-05
6.45812e-05
6.45815e-05
6.45818e-05
6.4582e-05
6.45822e-05
6.45822e-05
6.4582e-05
6.45818e-05
6.45815e-05
6.45812e-05
6.45808e-05
6.45804e-05
6.458e-05
6.45797e-05
6.45813e-05
6.23311e-05
6.2326e-05
6.23272e-05
6.23289e-05
6.23309e-05
6.23328e-05
6.23345e-05
6.23359e-05
6.23369e-05
6.23374e-05
6.23374e-05
6.23369e-05
6.23359e-05
6.23345e-05
6.23327e-05
6.23308e-05
6.23289e-05
6.23271e-05
6.2326e-05
6.23311e-05
6.63196e-05
6.63195e-05
6.63195e-05
6.63195e-05
6.63194e-05
6.63194e-05
6.63193e-05
6.63193e-05
6.63193e-05
6.63192e-05
6.63192e-05
6.63192e-05
6.63193e-05
6.63193e-05
6.63193e-05
6.63193e-05
6.63194e-05
6.63194e-05
6.63194e-05
6.63195e-05
6.66557e-05
6.66556e-05
6.66555e-05
6.66555e-05
6.66555e-05
6.66556e-05
6.66556e-05
6.66556e-05
6.66556e-05
6.66556e-05
6.66556e-05
6.66556e-05
6.66556e-05
6.66556e-05
6.66556e-05
6.66556e-05
6.66556e-05
6.66556e-05
6.66556e-05
6.66558e-05
6.56155e-05
6.56153e-05
6.56152e-05
6.56151e-05
6.56149e-05
6.56148e-05
6.56146e-05
6.56145e-05
6.56144e-05
6.56144e-05
6.56144e-05
6.56144e-05
6.56145e-05
6.56146e-05
6.56148e-05
6.5615e-05
6.56151e-05
6.56152e-05
6.56154e-05
6.56155e-05
6.50807e-05
6.50803e-05
6.508e-05
6.50798e-05
6.50795e-05
6.50792e-05
6.5079e-05
6.50787e-05
6.50785e-05
6.50784e-05
6.50784e-05
6.50785e-05
6.50787e-05
6.5079e-05
6.50793e-05
6.50795e-05
6.50798e-05
6.50801e-05
6.50803e-05
6.50807e-05
6.1676e-05
6.16686e-05
6.16697e-05
6.16714e-05
6.16733e-05
6.16751e-05
6.16766e-05
6.16779e-05
6.16788e-05
6.16793e-05
6.16793e-05
6.16788e-05
6.16779e-05
6.16766e-05
6.1675e-05
6.16732e-05
6.16714e-05
6.16697e-05
6.16686e-05
6.1676e-05
6.18912e-05
6.18911e-05
6.18906e-05
6.18897e-05
6.18884e-05
6.18871e-05
6.18858e-05
6.18846e-05
6.18838e-05
6.18833e-05
6.18833e-05
6.18837e-05
6.18845e-05
6.18857e-05
6.1887e-05
6.18883e-05
6.18895e-05
6.18905e-05
6.1891e-05
6.1891e-05
6.33115e-05
6.33111e-05
6.33105e-05
6.33098e-05
6.33089e-05
6.33081e-05
6.33072e-05
6.33065e-05
6.3306e-05
6.33058e-05
6.33058e-05
6.3306e-05
6.33065e-05
6.33072e-05
6.3308e-05
6.33089e-05
6.33097e-05
6.33105e-05
6.3311e-05
6.33114e-05
6.16276e-05
6.16306e-05
6.16318e-05
6.16318e-05
6.16311e-05
6.163e-05
6.16288e-05
6.16277e-05
6.16269e-05
6.16265e-05
6.16265e-05
6.16269e-05
6.16277e-05
6.16288e-05
6.163e-05
6.16311e-05
6.16319e-05
6.16318e-05
6.16306e-05
6.16277e-05
6.46845e-05
6.46843e-05
6.46841e-05
6.46838e-05
6.46835e-05
6.46831e-05
6.46828e-05
6.46825e-05
6.46823e-05
6.46822e-05
6.46822e-05
6.46823e-05
6.46825e-05
6.46828e-05
6.46832e-05
6.46835e-05
6.46839e-05
6.46842e-05
6.46844e-05
6.46845e-05
6.63559e-05
6.63559e-05
6.63558e-05
6.63558e-05
6.63558e-05
6.63557e-05
6.63557e-05
6.63556e-05
6.63556e-05
6.63556e-05
6.63556e-05
6.63556e-05
6.63556e-05
6.63556e-05
6.63556e-05
6.63556e-05
6.63557e-05
6.63557e-05
6.63557e-05
6.63558e-05
6.60759e-05
6.60759e-05
6.60759e-05
6.60758e-05
6.60758e-05
6.60757e-05
6.60757e-05
6.60756e-05
6.60756e-05
6.60756e-05
6.60756e-05
6.60756e-05
6.60756e-05
6.60757e-05
6.60758e-05
6.60758e-05
6.60759e-05
6.60759e-05
6.60759e-05
6.6076e-05
6.45817e-05
6.45789e-05
6.45777e-05
6.45764e-05
6.45748e-05
6.45731e-05
6.45714e-05
6.45701e-05
6.45691e-05
6.45686e-05
6.45686e-05
6.45691e-05
6.457e-05
6.45714e-05
6.4573e-05
6.45747e-05
6.45763e-05
6.45776e-05
6.45788e-05
6.45816e-05
6.17895e-05
6.17825e-05
6.17837e-05
6.17855e-05
6.17875e-05
6.17893e-05
6.1791e-05
6.17924e-05
6.17934e-05
6.17938e-05
6.17938e-05
6.17934e-05
6.17924e-05
6.1791e-05
6.17893e-05
6.17875e-05
6.17855e-05
6.17837e-05
6.17825e-05
6.17895e-05
6.21417e-05
6.21374e-05
6.21384e-05
6.21402e-05
6.2142e-05
6.21439e-05
6.21456e-05
6.2147e-05
6.21479e-05
6.21484e-05
6.21484e-05
6.21479e-05
6.2147e-05
6.21456e-05
6.21439e-05
6.2142e-05
6.21402e-05
6.21385e-05
6.21374e-05
6.21417e-05
6.45179e-05
6.45176e-05
6.45173e-05
6.45168e-05
6.45163e-05
6.45158e-05
6.45153e-05
6.45149e-05
6.45146e-05
6.45144e-05
6.45144e-05
6.45145e-05
6.45148e-05
6.45153e-05
6.45158e-05
6.45163e-05
6.45168e-05
6.45172e-05
6.45176e-05
6.45178e-05
6.4199e-05
6.41986e-05
6.41982e-05
6.41978e-05
6.41972e-05
6.41967e-05
6.41961e-05
6.41956e-05
6.41953e-05
6.41951e-05
6.41951e-05
6.41953e-05
6.41957e-05
6.41961e-05
6.41967e-05
6.41973e-05
6.41978e-05
6.41983e-05
6.41987e-05
6.41991e-05
6.67765e-05
6.67765e-05
6.67765e-05
6.67765e-05
6.67765e-05
6.67765e-05
6.67765e-05
6.67766e-05
6.67766e-05
6.67766e-05
6.67766e-05
6.67766e-05
6.67766e-05
6.67766e-05
6.67765e-05
6.67765e-05
6.67765e-05
6.67765e-05
6.67765e-05
6.67765e-05
6.48129e-05
6.48128e-05
6.48126e-05
6.48123e-05
6.48121e-05
6.48118e-05
6.48115e-05
6.48112e-05
6.4811e-05
6.48109e-05
6.48109e-05
6.4811e-05
6.48112e-05
6.48115e-05
6.48118e-05
6.4812e-05
6.48123e-05
6.48126e-05
6.48128e-05
6.48129e-05
6.5525e-05
6.55248e-05
6.55247e-05
6.55246e-05
6.55244e-05
6.55243e-05
6.55241e-05
6.5524e-05
6.55239e-05
6.55238e-05
6.55239e-05
6.55239e-05
6.5524e-05
6.55242e-05
6.55243e-05
6.55245e-05
6.55246e-05
6.55248e-05
6.55249e-05
6.5525e-05
6.49493e-05
6.49491e-05
6.49489e-05
6.49487e-05
6.49484e-05
6.49481e-05
6.49479e-05
6.49477e-05
6.49475e-05
6.49474e-05
6.49474e-05
6.49475e-05
6.49477e-05
6.49479e-05
6.49481e-05
6.49484e-05
6.49487e-05
6.49489e-05
6.49491e-05
6.49493e-05
6.17326e-05
6.17342e-05
6.17347e-05
6.17343e-05
6.17333e-05
6.1732e-05
6.17307e-05
6.17296e-05
6.17287e-05
6.17282e-05
6.17282e-05
6.17287e-05
6.17295e-05
6.17307e-05
6.1732e-05
6.17333e-05
6.17342e-05
6.17347e-05
6.17342e-05
6.17326e-05
6.65616e-05
6.65616e-05
6.65616e-05
6.65615e-05
6.65615e-05
6.65615e-05
6.65615e-05
6.65615e-05
6.65615e-05
6.65615e-05
6.65615e-05
6.65615e-05
6.65615e-05
6.65615e-05
6.65615e-05
6.65615e-05
6.65615e-05
6.65615e-05
6.65616e-05
6.65616e-05
6.37e-05
6.36998e-05
6.36994e-05
6.36988e-05
6.36982e-05
6.36975e-05
6.36969e-05
6.36964e-05
6.3696e-05
6.36958e-05
6.36957e-05
6.36959e-05
6.36963e-05
6.36968e-05
6.36975e-05
6.36981e-05
6.36987e-05
6.36992e-05
6.36996e-05
6.36999e-05
6.54639e-05
6.54637e-05
6.54636e-05
6.54635e-05
6.54633e-05
6.54631e-05
6.54629e-05
6.54628e-05
6.54627e-05
6.54626e-05
6.54627e-05
6.54627e-05
6.54628e-05
6.5463e-05
6.54632e-05
6.54633e-05
6.54635e-05
6.54637e-05
6.54638e-05
6.5464e-05
6.53085e-05
6.53083e-05
6.53081e-05
6.53079e-05
6.53077e-05
6.53075e-05
6.53073e-05
6.53072e-05
6.5307e-05
6.5307e-05
6.5307e-05
6.53071e-05
6.53072e-05
6.53074e-05
6.53075e-05
6.53077e-05
6.53079e-05
6.53081e-05
6.53083e-05
6.53086e-05
6.51992e-05
6.51989e-05
6.51988e-05
6.51986e-05
6.51984e-05
6.51981e-05
6.51979e-05
6.51977e-05
6.51976e-05
6.51975e-05
6.51975e-05
6.51976e-05
6.51978e-05
6.51979e-05
6.51982e-05
6.51984e-05
6.51986e-05
6.51988e-05
6.5199e-05
6.51992e-05
6.62269e-05
6.62268e-05
6.62268e-05
6.62267e-05
6.62267e-05
6.62266e-05
6.62266e-05
6.62266e-05
6.62265e-05
6.62265e-05
6.62265e-05
6.62265e-05
6.62265e-05
6.62266e-05
6.62266e-05
6.62266e-05
6.62267e-05
6.62267e-05
6.62268e-05
6.62268e-05
6.67261e-05
6.67261e-05
6.67261e-05
6.67261e-05
6.67261e-05
6.67261e-05
6.67261e-05
6.67261e-05
6.67261e-05
6.67261e-05
6.67261e-05
6.67261e-05
6.67261e-05
6.67261e-05
6.67261e-05
6.67261e-05
6.67261e-05
6.67261e-05
6.67261e-05
6.67262e-05
6.46509e-05
6.46507e-05
6.46505e-05
6.46502e-05
6.46498e-05
6.46494e-05
6.4649e-05
6.46487e-05
6.46485e-05
6.46484e-05
6.46483e-05
6.46485e-05
6.46487e-05
6.4649e-05
6.46494e-05
6.46498e-05
6.46502e-05
6.46505e-05
6.46507e-05
6.46509e-05
6.31942e-05
6.31939e-05
6.31934e-05
6.31926e-05
6.31917e-05
6.31908e-05
6.31899e-05
6.31892e-05
6.31887e-05
6.31884e-05
6.31884e-05
6.31886e-05
6.31891e-05
6.31897e-05
6.31906e-05
6.31915e-05
6.31923e-05
6.31931e-05
6.31936e-05
6.31939e-05
6.32263e-05
6.32265e-05
6.32263e-05
6.32259e-05
6.32252e-05
6.32244e-05
6.32236e-05
6.32229e-05
6.32224e-05
6.32222e-05
6.32221e-05
6.32224e-05
6.32228e-05
6.32235e-05
6.32243e-05
6.32251e-05
6.32257e-05
6.32262e-05
6.32263e-05
6.32261e-05
6.57137e-05
6.57136e-05
6.57135e-05
6.57134e-05
6.57133e-05
6.57132e-05
6.5713e-05
6.5713e-05
6.57129e-05
6.57128e-05
6.57128e-05
6.57129e-05
6.57129e-05
6.5713e-05
6.57131e-05
6.57132e-05
6.57134e-05
6.57135e-05
6.57135e-05
6.57136e-05
6.21882e-05
6.21862e-05
6.21849e-05
6.21834e-05
6.21816e-05
6.21798e-05
6.21781e-05
6.21767e-05
6.21757e-05
6.21751e-05
6.21751e-05
6.21756e-05
6.21766e-05
6.2178e-05
6.21796e-05
6.21814e-05
6.21831e-05
6.21847e-05
6.21859e-05
6.21879e-05
6.66078e-05
6.66077e-05
6.66077e-05
6.66077e-05
6.66077e-05
6.66077e-05
6.66077e-05
6.66077e-05
6.66077e-05
6.66077e-05
6.66077e-05
6.66077e-05
6.66077e-05
6.66077e-05
6.66077e-05
6.66077e-05
6.66077e-05
6.66077e-05
6.66077e-05
6.66078e-05
6.19955e-05
6.1984e-05
6.19854e-05
6.19874e-05
6.19896e-05
6.19916e-05
6.19935e-05
6.1995e-05
6.1996e-05
6.19966e-05
6.19966e-05
6.1996e-05
6.1995e-05
6.19935e-05
6.19917e-05
6.19896e-05
6.19874e-05
6.19854e-05
6.1984e-05
6.19955e-05
6.64928e-05
6.64927e-05
6.64927e-05
6.64927e-05
6.64927e-05
6.64926e-05
6.64926e-05
6.64926e-05
6.64926e-05
6.64926e-05
6.64926e-05
6.64926e-05
6.64926e-05
6.64926e-05
6.64926e-05
6.64926e-05
6.64926e-05
6.64926e-05
6.64926e-05
6.64927e-05
6.41e-05
6.40963e-05
6.40952e-05
6.4094e-05
6.40925e-05
6.4091e-05
6.40896e-05
6.40884e-05
6.40876e-05
6.40872e-05
6.40872e-05
6.40877e-05
6.40885e-05
6.40898e-05
6.40912e-05
6.40927e-05
6.40942e-05
6.40954e-05
6.40966e-05
6.41002e-05
6.56652e-05
6.56651e-05
6.5665e-05
6.56649e-05
6.56648e-05
6.56647e-05
6.56645e-05
6.56644e-05
6.56644e-05
6.56643e-05
6.56643e-05
6.56644e-05
6.56644e-05
6.56645e-05
6.56647e-05
6.56648e-05
6.56649e-05
6.5665e-05
6.56651e-05
6.56652e-05
6.15935e-05
6.15866e-05
6.15868e-05
6.15882e-05
6.159e-05
6.15919e-05
6.15938e-05
6.15953e-05
6.15964e-05
6.1597e-05
6.1597e-05
6.15964e-05
6.15953e-05
6.15937e-05
6.15919e-05
6.15899e-05
6.15881e-05
6.15868e-05
6.15866e-05
6.15934e-05
6.58655e-05
6.58655e-05
6.58654e-05
6.58653e-05
6.58653e-05
6.58652e-05
6.58651e-05
6.5865e-05
6.5865e-05
6.58649e-05
6.58649e-05
6.5865e-05
6.5865e-05
6.58651e-05
6.58652e-05
6.58653e-05
6.58654e-05
6.58654e-05
6.58655e-05
6.58656e-05
6.57878e-05
6.57877e-05
6.57876e-05
6.57876e-05
6.57875e-05
6.57874e-05
6.57873e-05
6.57872e-05
6.57872e-05
6.57871e-05
6.57871e-05
6.57872e-05
6.57872e-05
6.57873e-05
6.57874e-05
6.57875e-05
6.57876e-05
6.57876e-05
6.57877e-05
6.57878e-05
6.46497e-05
6.46495e-05
6.46493e-05
6.46489e-05
6.46485e-05
6.4648e-05
6.46476e-05
6.46472e-05
6.46469e-05
6.46467e-05
6.46467e-05
6.46469e-05
6.46472e-05
6.46476e-05
6.4648e-05
6.46485e-05
6.46489e-05
6.46493e-05
6.46495e-05
6.46497e-05
6.59369e-05
6.59369e-05
6.59368e-05
6.59368e-05
6.59367e-05
6.59366e-05
6.59366e-05
6.59365e-05
6.59365e-05
6.59365e-05
6.59365e-05
6.59365e-05
6.59365e-05
6.59366e-05
6.59367e-05
6.59367e-05
6.59368e-05
6.59369e-05
6.59369e-05
6.5937e-05
6.35023e-05
6.35025e-05
6.35022e-05
6.35017e-05
6.3501e-05
6.35002e-05
6.34993e-05
6.34985e-05
6.34977e-05
6.34973e-05
6.34974e-05
6.34979e-05
6.34987e-05
6.34996e-05
6.35006e-05
6.35015e-05
6.35022e-05
6.35028e-05
6.3503e-05
6.35029e-05
6.39778e-05
6.39774e-05
6.3977e-05
6.39765e-05
6.3976e-05
6.39755e-05
6.39749e-05
6.39745e-05
6.39742e-05
6.3974e-05
6.3974e-05
6.39742e-05
6.39745e-05
6.3975e-05
6.39755e-05
6.3976e-05
6.39765e-05
6.3977e-05
6.39774e-05
6.39778e-05
6.46333e-05
6.46331e-05
6.46328e-05
6.46324e-05
6.4632e-05
6.46315e-05
6.46311e-05
6.46308e-05
6.46305e-05
6.46304e-05
6.46304e-05
6.46305e-05
6.46307e-05
6.46311e-05
6.46315e-05
6.4632e-05
6.46324e-05
6.46328e-05
6.4633e-05
6.46333e-05
6.35264e-05
6.35261e-05
6.35256e-05
6.35251e-05
6.35245e-05
6.35239e-05
6.35233e-05
6.35228e-05
6.35224e-05
6.35222e-05
6.35222e-05
6.35224e-05
6.35227e-05
6.35231e-05
6.35237e-05
6.35243e-05
6.35249e-05
6.35254e-05
6.35258e-05
6.35261e-05
6.46307e-05
6.4628e-05
6.46275e-05
6.4627e-05
6.46264e-05
6.46256e-05
6.46248e-05
6.4624e-05
6.46234e-05
6.4623e-05
6.4623e-05
6.46232e-05
6.46237e-05
6.46244e-05
6.46251e-05
6.46258e-05
6.46264e-05
6.46268e-05
6.46274e-05
6.463e-05
6.47548e-05
6.47547e-05
6.47545e-05
6.47543e-05
6.4754e-05
6.47537e-05
6.47535e-05
6.47533e-05
6.47531e-05
6.4753e-05
6.4753e-05
6.47531e-05
6.47533e-05
6.47535e-05
6.47537e-05
6.4754e-05
6.47543e-05
6.47545e-05
6.47547e-05
6.47548e-05
6.64409e-05
6.64409e-05
6.64408e-05
6.64408e-05
6.64408e-05
6.64408e-05
6.64408e-05
6.64407e-05
6.64407e-05
6.64407e-05
6.64407e-05
6.64407e-05
6.64407e-05
6.64407e-05
6.64407e-05
6.64407e-05
6.64407e-05
6.64407e-05
6.64408e-05
6.64409e-05
6.61667e-05
6.61666e-05
6.61666e-05
6.61665e-05
6.61665e-05
6.61665e-05
6.61664e-05
6.61664e-05
6.61664e-05
6.61664e-05
6.61664e-05
6.61664e-05
6.61664e-05
6.61664e-05
6.61665e-05
6.61665e-05
6.61665e-05
6.61666e-05
6.61666e-05
6.61667e-05
6.55818e-05
6.55817e-05
6.55816e-05
6.55815e-05
6.55814e-05
6.55812e-05
6.55811e-05
6.5581e-05
6.55809e-05
6.55809e-05
6.55809e-05
6.55809e-05
6.5581e-05
6.55811e-05
6.55813e-05
6.55814e-05
6.55815e-05
6.55816e-05
6.55818e-05
6.55818e-05
6.46579e-05
6.46578e-05
6.46576e-05
6.46573e-05
6.4657e-05
6.46567e-05
6.46564e-05
6.46561e-05
6.4656e-05
6.46559e-05
6.46559e-05
6.4656e-05
6.46561e-05
6.46564e-05
6.46567e-05
6.4657e-05
6.46574e-05
6.46576e-05
6.46578e-05
6.46579e-05
6.19098e-05
6.19029e-05
6.1904e-05
6.19058e-05
6.19077e-05
6.19096e-05
6.19112e-05
6.19126e-05
6.19136e-05
6.19141e-05
6.19141e-05
6.19136e-05
6.19126e-05
6.19113e-05
6.19096e-05
6.19077e-05
6.19058e-05
6.1904e-05
6.19029e-05
6.19097e-05
6.54087e-05
6.54086e-05
6.54085e-05
6.54083e-05
6.54082e-05
6.5408e-05
6.54079e-05
6.54077e-05
6.54076e-05
6.54076e-05
6.54076e-05
6.54076e-05
6.54077e-05
6.54079e-05
6.5408e-05
6.54082e-05
6.54084e-05
6.54085e-05
6.54087e-05
6.54088e-05
6.60155e-05
6.60155e-05
6.60155e-05
6.60154e-05
6.60154e-05
6.60153e-05
6.60153e-05
6.60152e-05
6.60152e-05
6.60152e-05
6.60152e-05
6.60152e-05
6.60153e-05
6.60153e-05
6.60154e-05
6.60154e-05
6.60155e-05
6.60155e-05
6.60156e-05
6.60156e-05
6.44314e-05
6.44311e-05
6.44308e-05
6.44304e-05
6.443e-05
6.44296e-05
6.44292e-05
6.44288e-05
6.44286e-05
6.44285e-05
6.44285e-05
6.44286e-05
6.44288e-05
6.44291e-05
6.44295e-05
6.44299e-05
6.44303e-05
6.44307e-05
6.4431e-05
6.44313e-05
6.46042e-05
6.46039e-05
6.46036e-05
6.46032e-05
6.46028e-05
6.46023e-05
6.46019e-05
6.46016e-05
6.46013e-05
6.46012e-05
6.46012e-05
6.46013e-05
6.46015e-05
6.46019e-05
6.46023e-05
6.46027e-05
6.46032e-05
6.46036e-05
6.46039e-05
6.46041e-05
6.39016e-05
6.39005e-05
6.39002e-05
6.38998e-05
6.38994e-05
6.38988e-05
6.38983e-05
6.38978e-05
6.38974e-05
6.38972e-05
6.38973e-05
6.38975e-05
6.3898e-05
6.38985e-05
6.38992e-05
6.38997e-05
6.39002e-05
6.39006e-05
6.3901e-05
6.39021e-05
6.3475e-05
6.34746e-05
6.34745e-05
6.34744e-05
6.34744e-05
6.34743e-05
6.34743e-05
6.34742e-05
6.34742e-05
6.34742e-05
6.34742e-05
6.34742e-05
6.34742e-05
6.34743e-05
6.34743e-05
6.34744e-05
6.34744e-05
6.34745e-05
6.34746e-05
6.34751e-05
6.65707e-05
6.65709e-05
6.65709e-05
6.6571e-05
6.6571e-05
6.65708e-05
6.65709e-05
6.6571e-05
6.6571e-05
6.6571e-05
6.65709e-05
6.65709e-05
6.6571e-05
6.65709e-05
6.65708e-05
6.65708e-05
6.65707e-05
6.65707e-05
6.65707e-05
6.65708e-05
6.3466e-05
6.34658e-05
6.34657e-05
6.34658e-05
6.34659e-05
6.3466e-05
6.34661e-05
6.34662e-05
6.34662e-05
6.34662e-05
6.34662e-05
6.34662e-05
6.34661e-05
6.34661e-05
6.3466e-05
6.34659e-05
6.34658e-05
6.34657e-05
6.34657e-05
6.3466e-05
6.69385e-05
6.69384e-05
6.69384e-05
6.69384e-05
6.69384e-05
6.69384e-05
6.69384e-05
6.69384e-05
6.69385e-05
6.69385e-05
6.69385e-05
6.69385e-05
6.69384e-05
6.69384e-05
6.69384e-05
6.69384e-05
6.69384e-05
6.69383e-05
6.69384e-05
6.69385e-05
6.68427e-05
6.68427e-05
6.68427e-05
6.68427e-05
6.68428e-05
6.68428e-05
6.68428e-05
6.68428e-05
6.68428e-05
6.68428e-05
6.68428e-05
6.68428e-05
6.68428e-05
6.68428e-05
6.68428e-05
6.68428e-05
6.68428e-05
6.68427e-05
6.68427e-05
6.68428e-05
6.18295e-05
6.18329e-05
6.18343e-05
6.18346e-05
6.18345e-05
6.18341e-05
6.18337e-05
6.18334e-05
6.18332e-05
6.18331e-05
6.18331e-05
6.18332e-05
6.18334e-05
6.18337e-05
6.18341e-05
6.18344e-05
6.18346e-05
6.18342e-05
6.18328e-05
6.18295e-05
6.45241e-05
6.45215e-05
6.45211e-05
6.45209e-05
6.45205e-05
6.45202e-05
6.45198e-05
6.45195e-05
6.45193e-05
6.45192e-05
6.45192e-05
6.45193e-05
6.45195e-05
6.45198e-05
6.45202e-05
6.45205e-05
6.45209e-05
6.45211e-05
6.45215e-05
6.45241e-05
6.18094e-05
6.18134e-05
6.18153e-05
6.1816e-05
6.1816e-05
6.18157e-05
6.18154e-05
6.18151e-05
6.18149e-05
6.18148e-05
6.18148e-05
6.18149e-05
6.18151e-05
6.18154e-05
6.18157e-05
6.18159e-05
6.18159e-05
6.18152e-05
6.18133e-05
6.18093e-05
6.51315e-05
6.51313e-05
6.51314e-05
6.51315e-05
6.51316e-05
6.51316e-05
6.51316e-05
6.51316e-05
6.51315e-05
6.51315e-05
6.51316e-05
6.51316e-05
6.51316e-05
6.51317e-05
6.51317e-05
6.51317e-05
6.51316e-05
6.51316e-05
6.51315e-05
6.51317e-05
6.43635e-05
6.43617e-05
6.43616e-05
6.43617e-05
6.43618e-05
6.43618e-05
6.43619e-05
6.4362e-05
6.43621e-05
6.43621e-05
6.43621e-05
6.43621e-05
6.43621e-05
6.4362e-05
6.43619e-05
6.43619e-05
6.43618e-05
6.43617e-05
6.43618e-05
6.43636e-05
6.6908e-05
6.69079e-05
6.69079e-05
6.69079e-05
6.69079e-05
6.6908e-05
6.6908e-05
6.6908e-05
6.6908e-05
6.6908e-05
6.6908e-05
6.6908e-05
6.6908e-05
6.6908e-05
6.6908e-05
6.69079e-05
6.69079e-05
6.69079e-05
6.69079e-05
6.6908e-05
6.31591e-05
6.31591e-05
6.3159e-05
6.31589e-05
6.31587e-05
6.31586e-05
6.31585e-05
6.31584e-05
6.31584e-05
6.31583e-05
6.31583e-05
6.31584e-05
6.31584e-05
6.31585e-05
6.31586e-05
6.31587e-05
6.31588e-05
6.3159e-05
6.31591e-05
6.31591e-05
6.30409e-05
6.30412e-05
6.30408e-05
6.30404e-05
6.30399e-05
6.30395e-05
6.30391e-05
6.30388e-05
6.30386e-05
6.30386e-05
6.30385e-05
6.30386e-05
6.30388e-05
6.30391e-05
6.30394e-05
6.30399e-05
6.30403e-05
6.30408e-05
6.30412e-05
6.30408e-05
6.20342e-05
6.20365e-05
6.20368e-05
6.20367e-05
6.20365e-05
6.20363e-05
6.20361e-05
6.20359e-05
6.20358e-05
6.20357e-05
6.20357e-05
6.20358e-05
6.20359e-05
6.2036e-05
6.20362e-05
6.20365e-05
6.20367e-05
6.20368e-05
6.20365e-05
6.20342e-05
6.31445e-05
6.31448e-05
6.31447e-05
6.31446e-05
6.31445e-05
6.31444e-05
6.31443e-05
6.31442e-05
6.31441e-05
6.31441e-05
6.31441e-05
6.31441e-05
6.31442e-05
6.31443e-05
6.31444e-05
6.31445e-05
6.31446e-05
6.31448e-05
6.31448e-05
6.31446e-05
6.69245e-05
6.69242e-05
6.69242e-05
6.69242e-05
6.69242e-05
6.69243e-05
6.69243e-05
6.69243e-05
6.69243e-05
6.69243e-05
6.69243e-05
6.69243e-05
6.69242e-05
6.69242e-05
6.69242e-05
6.69242e-05
6.69241e-05
6.69241e-05
6.69241e-05
6.69244e-05
6.29742e-05
6.29744e-05
6.29744e-05
6.29743e-05
6.29741e-05
6.29739e-05
6.29738e-05
6.29736e-05
6.29735e-05
6.29734e-05
6.29734e-05
6.29735e-05
6.29736e-05
6.29737e-05
6.29739e-05
6.29741e-05
6.29742e-05
6.29744e-05
6.29743e-05
6.29741e-05
6.42339e-05
6.42349e-05
6.42351e-05
6.42353e-05
6.42354e-05
6.42356e-05
6.42357e-05
6.42358e-05
6.42359e-05
6.42359e-05
6.42359e-05
6.42359e-05
6.42358e-05
6.42357e-05
6.42355e-05
6.42354e-05
6.42352e-05
6.4235e-05
6.42348e-05
6.42338e-05
6.56196e-05
6.56191e-05
6.56191e-05
6.56191e-05
6.56191e-05
6.56191e-05
6.56191e-05
6.5619e-05
6.56189e-05
6.56189e-05
6.56189e-05
6.56189e-05
6.5619e-05
6.56191e-05
6.56192e-05
6.56192e-05
6.56192e-05
6.56191e-05
6.56192e-05
6.56197e-05
6.55053e-05
6.55051e-05
6.55051e-05
6.55051e-05
6.55051e-05
6.5505e-05
6.55049e-05
6.55049e-05
6.55048e-05
6.55047e-05
6.55048e-05
6.55048e-05
6.55049e-05
6.55049e-05
6.5505e-05
6.55051e-05
6.55051e-05
6.55051e-05
6.55051e-05
6.55053e-05
6.36089e-05
6.3609e-05
6.36091e-05
6.36092e-05
6.36094e-05
6.36095e-05
6.36096e-05
6.36097e-05
6.36097e-05
6.36098e-05
6.36098e-05
6.36097e-05
6.36097e-05
6.36096e-05
6.36095e-05
6.36093e-05
6.36092e-05
6.36091e-05
6.3609e-05
6.36088e-05
6.36891e-05
6.36886e-05
6.36885e-05
6.36885e-05
6.36885e-05
6.36886e-05
6.36886e-05
6.36886e-05
6.36886e-05
6.36886e-05
6.36886e-05
6.36886e-05
6.36886e-05
6.36886e-05
6.36886e-05
6.36885e-05
6.36885e-05
6.36885e-05
6.36887e-05
6.36891e-05
6.53557e-05
6.53548e-05
6.53546e-05
6.53545e-05
6.53545e-05
6.53544e-05
6.53543e-05
6.53542e-05
6.53541e-05
6.53541e-05
6.53541e-05
6.53541e-05
6.53542e-05
6.53543e-05
6.53544e-05
6.53545e-05
6.53545e-05
6.53546e-05
6.53548e-05
6.53557e-05
6.20642e-05
6.20619e-05
6.20617e-05
6.20614e-05
6.20612e-05
6.20609e-05
6.20607e-05
6.20606e-05
6.20605e-05
6.20604e-05
6.20604e-05
6.20605e-05
6.20606e-05
6.20607e-05
6.20609e-05
6.20612e-05
6.20614e-05
6.20616e-05
6.20618e-05
6.20641e-05
6.38794e-05
6.38783e-05
6.38782e-05
6.38783e-05
6.38783e-05
6.38784e-05
6.38784e-05
6.38784e-05
6.38784e-05