/*--------------------------------*- C++ -*----------------------------------*\
| =========                 |                                                 |
| \\      /  F ield         | OpenFOAM: The Open Source CFD Toolbox           |
|  \\    /   O peration     | Version:  4.1                                   |
|   \\  /    A nd           | Web:      www.OpenFOAM.org                      |
|    \\/     M anipulation  |                                                 |
\*---------------------------------------------------------------------------*/
FoamFile
{
    version     2.0;
    format      ascii;
    class       volScalarField;
    location    "0.019";
    object      volfrac;
}
// * * * * * * * * * * * * * * * * * * * * * * * * * * * * * * * * * * * * * //

dimensions      [0 0 0 0 0 0 0];

internalField   nonuniform List<scalar> 
278640
(
0
0
0
0
0
0
0
0
0
0
0
0
0
0
0
0
0
0
0
0
0
0
0
0
0
0
0
0
0
0
0
0
0
0
0
0
0
0
0
0
0
0
0
0
0
0
0
0
0
0
0
0
0
0
0
0
0
0
0
0
0
0
0
0
0
0
0
0
0
0
0
0
0
0
0
0
0
0
0
0
0
0
0
0
0
0
0
0
0
0
0
0
0
0
0
0
0
0
0
0
0
0
0
0
0
0
0
0
0
0
0
0
0
0
0
0
0
0
0
0
0
0
0
0
0
0
0
0
0
0
0
0
0
0
0
0
0
0
0
0
0
0
0
0
0
0
0
0
0
0
0
0
0
0
0
0
0
0
0
0
0
0
0
0
0
0
0
0
0
0
0
0
0
0
0
0
0
0
0
0
0
0
0
0
0
0
0
0
0
0
0
0
0
0
0
0
0
0
0
0
0
0
0
0
0
0
0
0
0
0
0
0
0
0
0
0
0
0
0
0
0
0
0
0
0
0
0
0
0
0
0
0
0
0
0
0
0
0
0
0
0
0
0
0
0
0
0
0
0
0
0
0
0
0
0
0
0
0
0
0
0
0
0
0
0
0
0
0
0
0
0
0
0
0
0
0
0
0
0
0
0
0
0
0
0
0
0
0
0
0
0
0
0
0
0
0
0
0
0
0
0
0
0
0
0
0
0
0
0
0
0
0
0
0
0
0
0
0
0
0
0
0
0
0
0
0
0
0
0
0
0
0
0
0
0
0
0
0
0
0
0
0
0
0
0
0
0
0
0
0
0
0
0
0
0
0
0
0
0
0
0
0
0
0
0
0
0
0
0
0
0
0
0
0
0
0
0
0
0
0
0
0
0
0
0
0
0
0
0
0
0
0
0
0
0
0
0
0
0
0
0
0
0
0
0
0
0
0
0
0
0
0
0
0
0
0
0
0
0
0
0
0
0
0
0
0
0
0
0
0
0
0
0
0
0
0
0
0
0
0
0
0
0
0
0
0
0
0
0
0
0
0
0
0
0
0
0
0
0
0
0
0
0
0
0
0
0
0
0
0
0
0
0
0
0
0
0
0
0
0
0
0
0
0
0
0
0
0
0
0
0
0
0
0
0
0
0
0
0
0
0
0
0
0
0
0
0
0
0
0
0
0
0
0
0
0
0
0
0
0
0
0
0
0
0
0
0
0
0
0
0
0
0
0
0
0
0
0
0
0
0
0
0
0
0
0
0
0
0
0
0
0
0
0
0
0
0
0
0
0
0
0
0
0
0
0
0
0
0
0
0
0
0
0
0
0
0
0
0
0
0
0
0
0
0
0
0
0
0
0
0
0
0
0
0
0
0
0
0
0
0
0
0
0
0
0
0
0
0
0
0
0
0
0
0
0
0
0
0
0
0
0
0
0
0
0
0
0
0
0
0
0
0
0
0
0
0
0
0
0
0
0
0
0
0
0
0
0
0
0
0
0
0
0
0
0
0
0
0
0
0
0
0
0
0
0
0
0
0
0
0
0
0
0
0
0
0
0
0
0
0
0
0
0
0
0
0
0
0
0
0
0
0
0
0
0
0
0
0
0
0
0
0
0
0
0
0
0
0
0
0
0
0
0
0
0
0
0
0
0
0
0
0
0
0
0
0
0
0
0
0
0
0
0
0
0
0
0
0
0
0
0
0
0
0
0
0
0
0
0
0
0
0
0
0
0
0
0
0
0
0
0
0
0
0
0
0
0
0
0
0
0
0
0
0
0
0
0
0
0
0.40557
0.405564
0.40556
0.405558
0.405555
0.405552
0.405549
0.405546
0.405544
0.405542
0.405542
0.405542
0.405544
0.405546
0.405548
0.40555
0.405553
0.405555
0.405558
0.405564
0.424981
0.42497
0.424968
0.424968
0.424968
0.424968
0.424968
0.424967
0.424967
0.424967
0.424967
0.424968
0.424969
0.424969
0.42497
0.42497
0.42497
0.424971
0.424973
0.424984
0.362022
0.36201
0.362
0.361988
0.361976
0.361963
0.36195
0.361939
0.361931
0.361927
0.361927
0.361931
0.361939
0.36195
0.361963
0.361976
0.361988
0.361999
0.36201
0.362022
0.325817
0.325779
0.325759
0.325739
0.325717
0.325693
0.325669
0.325649
0.325635
0.325627
0.325627
0.325635
0.325649
0.32567
0.325693
0.325717
0.325739
0.325759
0.325779
0.325818
0
0
0
0
0
0
0
0
0
0
0
0
0
0
0
0
0
0
0
0
0.0389395
0.0389377
0.0388788
0.0387674
0.0386193
0.0384548
0.0382947
0.0381575
0.0380575
0.0380045
0.0380037
0.0380549
0.0381534
0.0382895
0.0384487
0.0386127
0.0387608
0.0388725
0.0389321
0.0389346
0.184191
0.18415
0.184093
0.184018
0.183932
0.183842
0.183758
0.183686
0.183635
0.183608
0.183608
0.183635
0.183687
0.183758
0.183842
0.183932
0.184019
0.184094
0.184151
0.184191
0.00821007
0.0085828
0.00874195
0.00874844
0.00865899
0.00852062
0.0083702
0.00823522
0.00813498
0.00808173
0.00808146
0.00813426
0.00823428
0.00836939
0.00852034
0.00865965
0.00875052
0.00874609
0.00859012
0.00822245
0.297393
0.297378
0.297357
0.29733
0.297298
0.297264
0.297232
0.297205
0.297185
0.297174
0.297174
0.297185
0.297205
0.297232
0.297264
0.297298
0.29733
0.297358
0.297379
0.297393
0.407678
0.407671
0.407668
0.407665
0.407663
0.40766
0.407657
0.407654
0.407652
0.40765
0.40765
0.40765
0.407651
0.407653
0.407655
0.407657
0.407658
0.40766
0.407663
0.40767
0.390919
0.390917
0.390913
0.39091
0.390906
0.390901
0.390897
0.390893
0.39089
0.390888
0.390888
0.39089
0.390894
0.390898
0.390903
0.390908
0.390912
0.390916
0.390919
0.390922
0.289262
0.28902
0.288921
0.288815
0.288689
0.288553
0.288424
0.288314
0.288235
0.288194
0.288194
0.288236
0.288315
0.288424
0.288554
0.288689
0.288815
0.288921
0.289021
0.289263
0
0
0
0
0
0
0
0
0
0
0
0
0
0
0
0
0
0
0
0
0
0
0
0
0
0
0
0
0
0
0
0
0
0
0
0
0
0
0
0
0.284627
0.284599
0.284566
0.284526
0.284479
0.284429
0.284382
0.284342
0.284313
0.284297
0.284297
0.284311
0.28434
0.284379
0.284425
0.284474
0.28452
0.284561
0.284594
0.284621
0.259747
0.259707
0.259672
0.25963
0.259581
0.259528
0.259478
0.259435
0.259404
0.259388
0.259388
0.259406
0.259438
0.259482
0.259533
0.259587
0.259637
0.259679
0.259715
0.259755
0.43174
0.43174
0.43174
0.43174
0.431741
0.431742
0.431743
0.431744
0.431745
0.431746
0.431746
0.431746
0.431745
0.431744
0.431744
0.431743
0.431742
0.431741
0.431741
0.431742
0.306689
0.306674
0.306657
0.306635
0.306609
0.306582
0.306556
0.306534
0.306518
0.30651
0.30651
0.306518
0.306534
0.306556
0.306582
0.306609
0.306635
0.306657
0.306674
0.306689
0.356026
0.356016
0.356006
0.355994
0.355982
0.355968
0.355955
0.355944
0.355935
0.355931
0.355931
0.355936
0.355945
0.355956
0.35597
0.355984
0.355997
0.356009
0.356019
0.356029
0.316476
0.316457
0.31644
0.316421
0.316399
0.316376
0.316354
0.316335
0.316322
0.316314
0.316314
0.316322
0.316336
0.316355
0.316377
0.3164
0.316422
0.316441
0.316458
0.316476
0.0206189
0.0208275
0.0208877
0.0208389
0.0207194
0.020564
0.0204029
0.0202604
0.0201551
0.0200992
0.0200987
0.0201538
0.0202585
0.0204005
0.0205616
0.0207174
0.0208377
0.0208878
0.0208296
0.020624
0.419629
0.419626
0.419624
0.419623
0.419623
0.419622
0.419622
0.419621
0.419621
0.41962
0.41962
0.41962
0.419621
0.419621
0.419621
0.419621
0.419622
0.419622
0.419624
0.419627
0.218451
0.218424
0.218383
0.21833
0.218267
0.218202
0.218139
0.218086
0.218047
0.218027
0.218026
0.218046
0.218083
0.218135
0.218196
0.218261
0.218323
0.218375
0.218416
0.218443
0.352004
0.351989
0.351977
0.351963
0.351949
0.351934
0.35192
0.351907
0.351898
0.351894
0.351894
0.351899
0.351909
0.351922
0.351937
0.351952
0.351967
0.351981
0.351993
0.352008
0.341548
0.341522
0.341506
0.341491
0.341474
0.341457
0.341441
0.341427
0.341416
0.341411
0.341411
0.341417
0.341428
0.341442
0.341459
0.341476
0.341493
0.341508
0.341525
0.341551
0.334034
0.334008
0.333992
0.333976
0.333958
0.333939
0.333921
0.333905
0.333893
0.333887
0.333887
0.333894
0.333905
0.333921
0.333939
0.333958
0.333976
0.333992
0.334009
0.334035
0.400029
0.400023
0.400019
0.400016
0.400013
0.40001
0.400006
0.400003
0.400001
0.4
0.399999
0.4
0.400002
0.400005
0.400008
0.400011
0.400013
0.400016
0.40002
0.400026
0.428939
0.428935
0.428934
0.428934
0.428934
0.428935
0.428936
0.428936
0.428936
0.428936
0.428937
0.428937
0.428937
0.428936
0.428936
0.428936
0.428935
0.428935
0.428937
0.42894
0.295078
0.295063
0.295039
0.295008
0.294969
0.294928
0.294889
0.294857
0.294835
0.294824
0.294824
0.294834
0.294856
0.294888
0.294926
0.294967
0.295006
0.295038
0.295061
0.295077
0.173454
0.173427
0.173368
0.173286
0.173188
0.173086
0.172989
0.172907
0.172848
0.172816
0.172814
0.172842
0.172898
0.172977
0.173071
0.173172
0.173268
0.173349
0.173407
0.173433
0.177078
0.177096
0.177088
0.177043
0.176965
0.17687
0.176774
0.176692
0.176634
0.176604
0.176603
0.17663
0.176686
0.176765
0.176859
0.176952
0.177028
0.177073
0.17708
0.177061
0.368378
0.36837
0.368363
0.368354
0.368345
0.368335
0.368326
0.368318
0.368312
0.368309
0.368309
0.368311
0.368317
0.368325
0.368334
0.368343
0.368352
0.368361
0.368368
0.368376
0.0719329
0.0716988
0.0715522
0.0713775
0.0711777
0.0709709
0.0707769
0.0706137
0.0704959
0.0704338
0.0704327
0.0704926
0.0706083
0.0707697
0.0709621
0.0711676
0.0713663
0.0715402
0.0716862
0.071921
0.422264
0.422261
0.42226
0.42226
0.42226
0.42226
0.42226
0.42226
0.42226
0.42226
0.42226
0.42226
0.42226
0.42226
0.42226
0.42226
0.42226
0.42226
0.422261
0.422264
0
0
0
0
0
0
0
0
0
0
0
0
0
0
0
0
0
0
0
0
0.415693
0.415687
0.415684
0.415683
0.415681
0.41568
0.415679
0.415678
0.415677
0.415676
0.415675
0.415675
0.415675
0.415676
0.415677
0.415677
0.415678
0.415679
0.415682
0.415688
0.251546
0.251224
0.251127
0.251026
0.250906
0.250781
0.250664
0.250565
0.250495
0.25046
0.250462
0.250502
0.250577
0.250679
0.2508
0.250928
0.251049
0.251151
0.251248
0.251571
0.365262
0.365253
0.365244
0.365234
0.365224
0.365212
0.365202
0.365193
0.365186
0.365182
0.365182
0.365185
0.365192
0.365201
0.365211
0.365223
0.365233
0.365243
0.365252
0.365261
0
0
0
0
0
0
0
0
0
0
0
0
0
0
0
0
0
0
0
0
0.377951
0.377945
0.377939
0.377933
0.377927
0.37792
0.377913
0.377907
0.377903
0.377901
0.377901
0.377903
0.377908
0.377914
0.377921
0.377928
0.377935
0.377941
0.377946
0.377953
0.372997
0.372992
0.372986
0.372979
0.372972
0.372964
0.372956
0.37295
0.372945
0.372942
0.372942
0.372945
0.372949
0.372956
0.372964
0.372972
0.372979
0.372986
0.372992
0.372997
0.294977
0.294955
0.294929
0.294895
0.294854
0.294808
0.294764
0.294725
0.294696
0.294681
0.294681
0.294696
0.294725
0.294764
0.294809
0.294854
0.294895
0.294929
0.294957
0.294978
0.382374
0.38237
0.382366
0.382361
0.382356
0.382351
0.382346
0.382341
0.382338
0.382336
0.382337
0.382339
0.382342
0.382347
0.382353
0.382358
0.382364
0.382369
0.382373
0.382377
0.202403
0.20242
0.202393
0.202337
0.202261
0.202172
0.202077
0.201984
0.201905
0.201857
0.201861
0.201916
0.202002
0.202101
0.202201
0.202295
0.202374
0.202434
0.202462
0.202445
0.241825
0.241781
0.241741
0.241697
0.241646
0.241594
0.241544
0.241502
0.241472
0.241457
0.241457
0.241473
0.241504
0.241546
0.241596
0.241649
0.2417
0.241745
0.241784
0.241829
0.293586
0.293564
0.293534
0.293495
0.293451
0.293405
0.293363
0.293327
0.293301
0.293288
0.293288
0.293301
0.293327
0.293363
0.293406
0.293452
0.293496
0.293535
0.293565
0.293587
0.203532
0.203497
0.203452
0.203395
0.20333
0.203264
0.203201
0.203149
0.203111
0.203091
0.203089
0.203107
0.203142
0.203192
0.203252
0.203317
0.20338
0.203435
0.20348
0.203515
0.293621
0.293395
0.293345
0.293303
0.293243
0.293173
0.293101
0.293036
0.292985
0.292955
0.292951
0.292973
0.293017
0.293076
0.293143
0.293208
0.293264
0.293304
0.293353
0.293576
0.302606
0.302592
0.302574
0.302551
0.302524
0.302497
0.302472
0.302451
0.302436
0.302428
0.302427
0.302435
0.302451
0.302472
0.302497
0.302524
0.30255
0.302573
0.302592
0.302605
0.412647
0.412641
0.412637
0.412635
0.412634
0.412633
0.412631
0.41263
0.412629
0.412629
0.412628
0.412628
0.412629
0.412629
0.41263
0.412631
0.412632
0.412633
0.412636
0.412642
0.396467
0.396461
0.396458
0.396455
0.396452
0.396449
0.396446
0.396443
0.396442
0.39644
0.39644
0.396441
0.396443
0.396446
0.396448
0.396451
0.396454
0.396457
0.396461
0.396466
0.359847
0.359839
0.359829
0.359818
0.359807
0.359795
0.359784
0.359775
0.359768
0.359765
0.359765
0.359768
0.359775
0.359784
0.359796
0.359808
0.359819
0.35983
0.35984
0.359848
0.29555
0.295538
0.295517
0.29549
0.295458
0.295424
0.295393
0.295367
0.295348
0.295338
0.295337
0.295347
0.295366
0.295392
0.295424
0.295457
0.295489
0.295517
0.295538
0.29555
0
0
0
0
0
0
0
0
0
0
0
0
0
0
0
0
0
0
0
0
0.348275
0.348261
0.348248
0.348235
0.348221
0.348207
0.348194
0.348183
0.348175
0.348171
0.348171
0.348176
0.348184
0.348196
0.34821
0.348224
0.348238
0.348251
0.348264
0.348278
0.387311
0.387308
0.387305
0.387301
0.387297
0.387293
0.387289
0.387286
0.387284
0.387283
0.387283
0.387285
0.387288
0.387292
0.387296
0.3873
0.387304
0.387308
0.387312
0.387315
0.278116
0.278083
0.27805
0.278013
0.277972
0.27793
0.277891
0.277859
0.277836
0.277823
0.277823
0.277834
0.277856
0.277887
0.277925
0.277967
0.278007
0.278044
0.278077
0.278109
0.29136
0.291337
0.291305
0.291266
0.291221
0.291176
0.291133
0.291098
0.291073
0.29106
0.29106
0.291071
0.291095
0.29113
0.291172
0.291217
0.291261
0.2913
0.291332
0.291356
0.236445
0.236339
0.236302
0.236266
0.236219
0.236165
0.236111
0.236063
0.236028
0.236011
0.236014
0.236038
0.236079
0.236132
0.236191
0.236249
0.2363
0.236338
0.236377
0.236483
0.218998
0.218947
0.21893
0.21892
0.21891
0.218899
0.218887
0.218877
0.21887
0.218866
0.218866
0.21887
0.218877
0.218887
0.218898
0.218909
0.21892
0.218929
0.218947
0.218997
0.420783
0.420797
0.420796
0.420801
0.420802
0.420793
0.420794
0.420801
0.420803
0.420802
0.420797
0.420799
0.420804
0.420798
0.420791
0.420792
0.420792
0.420791
0.420789
0.420787
0.247606
0.247577
0.247565
0.247563
0.247562
0.247561
0.247559
0.247556
0.247554
0.247552
0.247553
0.247555
0.247558
0.247562
0.247565
0.247566
0.247568
0.247571
0.247582
0.247612
0.440727
0.440721
0.440719
0.440719
0.44072
0.440722
0.440723
0.440724
0.440725
0.440725
0.440725
0.440724
0.440723
0.440722
0.440721
0.440719
0.440718
0.440718
0.440719
0.440726
0.435392
0.435391
0.435391
0.435391
0.435392
0.435393
0.435395
0.435396
0.435397
0.435397
0.435397
0.435397
0.435397
0.435396
0.435394
0.435393
0.435392
0.435392
0.435392
0.435393
0.0362379
0.0366777
0.0368697
0.0369114
0.0368857
0.0368377
0.0367888
0.0367484
0.0367204
0.0367059
0.0367054
0.0367186
0.0367455
0.0367848
0.0368328
0.03688
0.0369048
0.0368623
0.0366696
0.0362295
0.28703
0.286815
0.286785
0.286763
0.286738
0.28671
0.286683
0.28666
0.286644
0.286635
0.286635
0.286644
0.28666
0.286683
0.28671
0.286738
0.286764
0.286785
0.286815
0.28703
0.0335007
0.0340179
0.0342646
0.0343471
0.0343477
0.0343141
0.0342714
0.0342327
0.0342042
0.034189
0.0341881
0.0342014
0.034228
0.0342649
0.034306
0.0343382
0.0343363
0.0342527
0.034005
0.0334871
0.333637
0.333626
0.33363
0.333633
0.333634
0.333632
0.333629
0.333625
0.333622
0.333621
0.333621
0.333624
0.333628
0.333633
0.333637
0.333639
0.333639
0.333636
0.333633
0.333645
0.275605
0.275459
0.275458
0.275468
0.275474
0.275477
0.275482
0.275488
0.275493
0.275496
0.275497
0.275495
0.275492
0.275487
0.275482
0.275477
0.275471
0.275462
0.275465
0.275612
0.438965
0.43896
0.438959
0.438959
0.43896
0.438962
0.438963
0.438964
0.438965
0.438965
0.438965
0.438965
0.438964
0.438963
0.438961
0.43896
0.438959
0.438958
0.438959
0.438964
0.179572
0.179569
0.179554
0.179535
0.179515
0.179498
0.179484
0.179472
0.179465
0.17946
0.179459
0.179462
0.179469
0.179478
0.179492
0.179508
0.179526
0.179545
0.17956
0.179562
0.161512
0.161547
0.161506
0.161461
0.161416
0.161376
0.161342
0.161315
0.161297
0.161287
0.161287
0.161296
0.161313
0.16134
0.161373
0.161413
0.161457
0.161503
0.161543
0.161508
0.0584621
0.058746
0.058787
0.0587759
0.0587508
0.0587234
0.0586988
0.0586793
0.058666
0.0586591
0.0586589
0.0586651
0.058678
0.058697
0.0587211
0.0587481
0.0587728
0.0587836
0.0587423
0.058458
0.184033
0.184056
0.18405
0.184036
0.18402
0.184002
0.183987
0.183974
0.183964
0.183959
0.183959
0.183964
0.183973
0.183985
0.184001
0.184018
0.184034
0.184048
0.184054
0.18403
0.44038
0.440362
0.440359
0.440361
0.440363
0.440364
0.440364
0.440364
0.440364
0.440364
0.440364
0.440363
0.440363
0.440362
0.440361
0.440359
0.440357
0.440355
0.440357
0.440375
0.163881
0.163912
0.163914
0.163899
0.163875
0.16385
0.163826
0.163806
0.163791
0.163784
0.163783
0.163789
0.163802
0.16382
0.163843
0.163867
0.16389
0.163904
0.163902
0.163871
0.346622
0.346691
0.346696
0.346697
0.346698
0.346697
0.346696
0.346694
0.346692
0.346691
0.346692
0.346693
0.346694
0.346696
0.346698
0.346699
0.346698
0.346698
0.346693
0.346623
0.36525
0.365212
0.365206
0.365207
0.365206
0.365202
0.365196
0.365189
0.365183
0.36518
0.36518
0.365184
0.36519
0.365197
0.365203
0.365208
0.365209
0.365208
0.365214
0.365252
0.356414
0.356396
0.356391
0.35639
0.356389
0.356385
0.35638
0.356374
0.356369
0.356366
0.356366
0.356369
0.356374
0.35638
0.356386
0.356389
0.356391
0.356392
0.356397
0.356414
0.276312
0.276323
0.276325
0.276328
0.276332
0.276334
0.276335
0.276336
0.276336
0.276336
0.276336
0.276336
0.276337
0.276337
0.276336
0.276335
0.276332
0.276329
0.276327
0.276317
0.250155
0.250105
0.250085
0.25008
0.250078
0.250075
0.250072
0.250069
0.250067
0.250066
0.250066
0.250068
0.250071
0.250075
0.250078
0.250081
0.250083
0.250089
0.250109
0.25016
0.346592
0.346514
0.346496
0.346492
0.346488
0.346483
0.346475
0.346467
0.346461
0.346458
0.346458
0.346461
0.346467
0.346475
0.346483
0.346488
0.346492
0.346496
0.346514
0.346592
0.0630553
0.0627952
0.0627754
0.0627527
0.0627226
0.0626951
0.0626718
0.0626525
0.0626383
0.0626308
0.0626306
0.0626368
0.062649
0.0626676
0.0626922
0.0627216
0.062752
0.0627727
0.0627894
0.0630487
0.240308
0.240213
0.240205
0.24021
0.240212
0.240212
0.240211
0.24021
0.240209
0.240209
0.240209
0.240209
0.24021
0.240211
0.240211
0.240211
0.24021
0.240205
0.240212
0.240308
0.241848
0.24181
0.24179
0.241778
0.241771
0.241766
0.241762
0.24176
0.241758
0.241756
0.241756
0.241757
0.241759
0.241762
0.241765
0.24177
0.241777
0.241789
0.241809
0.241847
0.254276
0.254263
0.25426
0.254262
0.254266
0.254272
0.254277
0.254281
0.254284
0.254286
0.254286
0.254285
0.254283
0.254279
0.254275
0.25427
0.254266
0.254264
0.254268
0.254281
0.413019
0.413009
0.413004
0.413001
0.412998
0.412994
0.412989
0.412984
0.41298
0.412978
0.412978
0.41298
0.412984
0.41299
0.412995
0.413
0.413004
0.413006
0.413011
0.413021
0.308822
0.308845
0.30885
0.308853
0.308857
0.308861
0.308864
0.308865
0.308867
0.308867
0.308867
0.308867
0.308866
0.308864
0.308862
0.308859
0.308855
0.308852
0.308847
0.308825
0.702803
0.702803
0.702803
0.702803
0.702803
0.702803
0.702803
0.702803
0.702803
0.702803
0.702803
0.702803
0.702803
0.702803
0.702803
0.702803
0.702804
0.702804
0.702804
0.702804
0.694829
0.694826
0.694825
0.694824
0.694824
0.694823
0.694823
0.694822
0.694822
0.694822
0.694822
0.694822
0.694823
0.694824
0.694825
0.694826
0.694827
0.694828
0.694829
0.694832
0.692906
0.6929
0.692898
0.692897
0.692897
0.692896
0.692895
0.692894
0.692893
0.692893
0.692893
0.692894
0.692895
0.692896
0.692897
0.692898
0.692899
0.692901
0.692902
0.692909
0.700134
0.700134
0.700134
0.700134
0.700134
0.700134
0.700134
0.700134
0.700134
0.700134
0.700134
0.700134
0.700134
0.700134
0.700135
0.700135
0.700135
0.700135
0.700136
0.700135
0.672945
0.672899
0.672889
0.672884
0.672877
0.672869
0.672861
0.672855
0.67285
0.672847
0.672847
0.67285
0.672856
0.672863
0.672871
0.67288
0.672887
0.672893
0.672903
0.67295
0.696722
0.696723
0.696722
0.696722
0.696721
0.696721
0.69672
0.69672
0.69672
0.69672
0.69672
0.69672
0.696721
0.696721
0.696722
0.696723
0.696724
0.696724
0.696725
0.696724
0.664051
0.66402
0.66401
0.663999
0.663984
0.663969
0.663955
0.663944
0.663937
0.663934
0.663935
0.663942
0.663952
0.663965
0.66398
0.663994
0.664008
0.664018
0.664028
0.664058
0.701024
0.701026
0.701026
0.701026
0.701026
0.701025
0.701025
0.701025
0.701025
0.701025
0.701025
0.701025
0.701025
0.701026
0.701026
0.701026
0.701026
0.701027
0.701027
0.701025
0.707536
0.707537
0.707537
0.707538
0.707538
0.707538
0.707538
0.707539
0.707539
0.707539
0.707539
0.70754
0.70754
0.70754
0.70754
0.70754
0.70754
0.70754
0.70754
0.707539
0.71682
0.716822
0.716822
0.716822
0.716822
0.716821
0.716821
0.716821
0.716821
0.71682
0.71682
0.71682
0.71682
0.71682
0.71682
0.71682
0.71682
0.71682
0.71682
0.716818
0.698647
0.69865
0.69865
0.69865
0.698649
0.698649
0.698649
0.698649
0.698648
0.698649
0.698649
0.698649
0.698649
0.69865
0.69865
0.698651
0.698651
0.698651
0.698651
0.698649
0.706295
0.706299
0.706299
0.706299
0.706299
0.706299
0.706299
0.706299
0.706299
0.706299
0.706299
0.706299
0.706299
0.706299
0.7063
0.7063
0.7063
0.7063
0.7063
0.706297
0.697076
0.697078
0.697078
0.697078
0.697077
0.697077
0.697077
0.697076
0.697076
0.697076
0.697077
0.697077
0.697077
0.697078
0.697078
0.697079
0.697079
0.69708
0.69708
0.697078
0.700168
0.700169
0.700169
0.700169
0.700169
0.700169
0.700169
0.700169
0.700169
0.700169
0.700169
0.700169
0.700169
0.700169
0.700169
0.70017
0.70017
0.70017
0.70017
0.700169
0.716299
0.716302
0.716302
0.716302
0.716302
0.716301
0.716301
0.716301
0.716301
0.716301
0.716301
0.716301
0.716301
0.716301
0.716301
0.716301
0.716302
0.716302
0.716302
0.716299
0.718915
0.718915
0.718915
0.718915
0.718915
0.718915
0.718915
0.718915
0.718915
0.718915
0.718915
0.718915
0.718915
0.718915
0.718915
0.718915
0.718915
0.718915
0.718915
0.718915
0.715723
0.715726
0.715726
0.715726
0.715726
0.715726
0.715726
0.715725
0.715725
0.715725
0.715725
0.715725
0.715725
0.715725
0.715725
0.715725
0.715725
0.715725
0.715725
0.715722
0.698521
0.698521
0.698521
0.69852
0.69852
0.69852
0.69852
0.698519
0.698519
0.698519
0.698519
0.69852
0.69852
0.69852
0.698521
0.698521
0.698522
0.698522
0.698522
0.698523
0.703565
0.703569
0.703569
0.703569
0.703569
0.703568
0.703568
0.703568
0.703568
0.703568
0.703568
0.703568
0.703568
0.703568
0.703569
0.703569
0.703569
0.703569
0.703569
0.703566
0.717012
0.717013
0.717013
0.717013
0.717013
0.717013
0.717014
0.717014
0.717014
0.717014
0.717015
0.717015
0.717015
0.717015
0.717015
0.717015
0.717016
0.717016
0.717015
0.717014
0.70314
0.703142
0.703142
0.703142
0.703142
0.703142
0.703142
0.703142
0.703142
0.703142
0.703142
0.703142
0.703142
0.703142
0.703142
0.703142
0.703142
0.703142
0.703142
0.70314
0.713687
0.713688
0.713688
0.713688
0.713688
0.713688
0.713688
0.713688
0.713688
0.713688
0.713688
0.713688
0.713688
0.713688
0.713688
0.713688
0.713688
0.713688
0.713688
0.713687
0.710645
0.710646
0.710646
0.710646
0.710646
0.710646
0.710646
0.710646
0.710646
0.710646
0.710646
0.710646
0.710646
0.710646
0.710646
0.710646
0.710646
0.710646
0.710646
0.710645
0.720423
0.720424
0.720424
0.720424
0.720424
0.720423
0.720423
0.720423
0.720423
0.720423
0.720423
0.720423
0.720423
0.720424
0.720424
0.720424
0.720424
0.720424
0.720424
0.720424
0.705138
0.705138
0.705138
0.705138
0.705138
0.705138
0.705138
0.705138
0.705138
0.705138
0.705138
0.705138
0.705138
0.705138
0.705138
0.705138
0.705138
0.705138
0.705138
0.705138
0.707567
0.707572
0.707572
0.707571
0.707571
0.707571
0.707571
0.707571
0.707571
0.707571
0.707571
0.707571
0.707571
0.707571
0.707571
0.707571
0.707571
0.707571
0.707571
0.707566
0.707954
0.707956
0.707957
0.707957
0.707957
0.707957
0.707957
0.707957
0.707957
0.707957
0.707958
0.707958
0.707958
0.707958
0.707958
0.707958
0.707959
0.707959
0.707959
0.707957
0.705952
0.705955
0.705955
0.705955
0.705955
0.705955
0.705955
0.705955
0.705955
0.705955
0.705955
0.705955
0.705955
0.705955
0.705955
0.705955
0.705955
0.705955
0.705956
0.705953
0.711343
0.711345
0.711345
0.711345
0.711345
0.711345
0.711345
0.711345
0.711345
0.711345
0.711345
0.711345
0.711345
0.711345
0.711345
0.711345
0.711345
0.711345
0.711345
0.711344
0.713779
0.713783
0.713783
0.713783
0.713782
0.713782
0.713782
0.713782
0.713782
0.713782
0.713782
0.713783
0.713783
0.713783
0.713783
0.713783
0.713783
0.713783
0.713783
0.71378
0.706023
0.706027
0.706026
0.706026
0.706026
0.706026
0.706026
0.706026
0.706026
0.706026
0.706026
0.706026
0.706026
0.706027
0.706027
0.706027
0.706027
0.706027
0.706027
0.706024
0.699043
0.699046
0.699046
0.699046
0.699045
0.699045
0.699045
0.699045
0.699045
0.699045
0.699045
0.699045
0.699045
0.699046
0.699046
0.699046
0.699047
0.699047
0.699047
0.699044
0.703173
0.703174
0.703174
0.703174
0.703174
0.703174
0.703174
0.703174
0.703174
0.703174
0.703174
0.703174
0.703174
0.703174
0.703174
0.703175
0.703175
0.703175
0.703175
0.703174
0.715974
0.715973
0.715973
0.715973
0.715973
0.715973
0.715973
0.715973
0.715973
0.715973
0.715973
0.715973
0.715973
0.715972
0.715972
0.715972
0.715972
0.715972
0.715972
0.715972
0.701439
0.70144
0.70144
0.701439
0.701439
0.701439
0.701439
0.701439
0.701439
0.701439
0.701439
0.701439
0.701439
0.701439
0.70144
0.70144
0.70144
0.70144
0.70144
0.701439
0.695513
0.695513
0.695513
0.695512
0.695512
0.695512
0.695511
0.695511
0.695511
0.695511
0.695511
0.695512
0.695512
0.695513
0.695513
0.695514
0.695514
0.695515
0.695515
0.695516
0.700793
0.700796
0.700796
0.700796
0.700795
0.700795
0.700795
0.700795
0.700795
0.700795
0.700795
0.700795
0.700795
0.700796
0.700796
0.700796
0.700797
0.700797
0.700797
0.700795
0.719609
0.71961
0.71961
0.71961
0.71961
0.71961
0.71961
0.71961
0.71961
0.719609
0.719609
0.719609
0.719609
0.719609
0.719609
0.719609
0.719609
0.719609
0.719609
0.719609
0.721069
0.72107
0.721071
0.721071
0.72107
0.72107
0.72107
0.72107
0.72107
0.72107
0.72107
0.72107
0.72107
0.72107
0.72107
0.72107
0.72107
0.72107
0.72107
0.721069
0.716039
0.716041
0.716042
0.716041
0.716041
0.716041
0.716041
0.716041
0.716041
0.716041
0.716041
0.716041
0.716041
0.716041
0.716041
0.716041
0.716042
0.716042
0.716042
0.716039
0.719973
0.719974
0.719974
0.719974
0.719974
0.719974
0.719974
0.719974
0.719974
0.719974
0.719974
0.719974
0.719974
0.719975
0.719975
0.719975
0.719975
0.719975
0.719975
0.719974
0.69051
0.690498
0.690495
0.690494
0.690494
0.690493
0.690492
0.690491
0.690491
0.690491
0.690491
0.690491
0.690492
0.690493
0.690494
0.690495
0.690496
0.690497
0.6905
0.690512
0.722046
0.722047
0.722047
0.722046
0.722046
0.722046
0.722045
0.722045
0.722045
0.722044
0.722044
0.722044
0.722044
0.722044
0.722044
0.722043
0.722043
0.722043
0.722043
0.722043
0.686255
0.686235
0.68623
0.686228
0.686226
0.686224
0.686221
0.686219
0.686218
0.686217
0.686217
0.686219
0.686221
0.686224
0.686227
0.68623
0.686232
0.686234
0.686239
0.68626
0.709713
0.709713
0.709713
0.709713
0.709712
0.709712
0.709712
0.709712
0.709712
0.709712
0.709712
0.709712
0.709712
0.709712
0.709713
0.709713
0.709713
0.709713
0.709713
0.709713
0.73014
0.730141
0.730142
0.730142
0.730142
0.730143
0.730143
0.730143
0.730144
0.730144
0.730144
0.730144
0.730144
0.730144
0.730144
0.730144
0.730143
0.730143
0.730143
0.730142
0.656969
0.656564
0.65653
0.656518
0.656508
0.656495
0.656481
0.656469
0.65646
0.656456
0.656456
0.656461
0.65647
0.656483
0.656497
0.656511
0.656521
0.656533
0.656568
0.656972
0.728055
0.728057
0.728057
0.728057
0.728057
0.728057
0.728057
0.728057
0.728057
0.728057
0.728058
0.728059
0.72806
0.728061
0.728062
0.728063
0.728064
0.728065
0.728065
0.728063
0.724622
0.724622
0.724622
0.724622
0.724622
0.724622
0.724622
0.724622
0.724622
0.724622
0.724622
0.724622
0.724622
0.724622
0.724622
0.724622
0.724622
0.724622
0.724622
0.724621
0.714504
0.714506
0.714506
0.714506
0.714506
0.714505
0.714505
0.714505
0.714505
0.714505
0.714505
0.714505
0.714505
0.714505
0.714505
0.714505
0.714505
0.714506
0.714505
0.714504
0.709784
0.709784
0.709784
0.709784
0.709784
0.709784
0.709784
0.709784
0.709784
0.709783
0.709783
0.709783
0.709783
0.709783
0.709783
0.709783
0.709783
0.709783
0.709783
0.709783
0.711736
0.711738
0.711738
0.711738
0.711738
0.711738
0.711738
0.711738
0.711738
0.711738
0.711738
0.711738
0.711738
0.711738
0.711738
0.711738
0.711738
0.711738
0.711738
0.711736
0.71272
0.712721
0.712721
0.712721
0.712721
0.712721
0.712721
0.712721
0.712721
0.712721
0.712721
0.712721
0.712721
0.712721
0.712721
0.712721
0.712721
0.712721
0.712721
0.71272
0.723164
0.723165
0.723165
0.723165
0.723165
0.723165
0.723165
0.723165
0.723165
0.723165
0.723165
0.723165
0.723165
0.723165
0.723165
0.723164
0.723164
0.723164
0.723164
0.723163
0.72594
0.725941
0.725941
0.725942
0.725943
0.725944
0.725944
0.725945
0.725944
0.725944
0.725943
0.725941
0.72594
0.72594
0.72594
0.725941
0.725943
0.725944
0.725946
0.725947
0.728778
0.728781
0.728782
0.728782
0.728782
0.728782
0.728782
0.728782
0.728782
0.728783
0.728783
0.728784
0.728785
0.728786
0.728787
0.728788
0.728789
0.728789
0.728789
0.728787
0.662127
0.662109
0.6621
0.662091
0.662079
0.662068
0.662057
0.662047
0.662041
0.662038
0.662038
0.662042
0.662049
0.662058
0.66207
0.662082
0.662093
0.662103
0.662113
0.66213
0.695246
0.695242
0.695241
0.695241
0.695241
0.69524
0.69524
0.69524
0.69524
0.69524
0.69524
0.69524
0.695241
0.695242
0.695242
0.695243
0.695243
0.695244
0.695245
0.695249
0.714091
0.71409
0.71409
0.714089
0.714089
0.714089
0.714089
0.714089
0.714089
0.714089
0.71409
0.71409
0.71409
0.71409
0.71409
0.71409
0.71409
0.71409
0.714091
0.714092
0.715722
0.715721
0.715721
0.715721
0.715721
0.715721
0.715721
0.715721
0.715721
0.715721
0.71572
0.71572
0.71572
0.71572
0.71572
0.71572
0.71572
0.71572
0.71572
0.715721
0.707457
0.707456
0.707456
0.707456
0.707456
0.707456
0.707456
0.707456
0.707456
0.707456
0.707456
0.707456
0.707456
0.707456
0.707456
0.707456
0.707456
0.707456
0.707456
0.707457
0.696436
0.696434
0.696433
0.696433
0.696433
0.696432
0.696432
0.696432
0.696432
0.696432
0.696432
0.696432
0.696433
0.696433
0.696434
0.696434
0.696435
0.696435
0.696436
0.696438
0.715844
0.715845
0.715845
0.715845
0.715845
0.715845
0.715845
0.715845
0.715845
0.715845
0.715845
0.715845
0.715845
0.715845
0.715845
0.715845
0.715845
0.715845
0.715845
0.715845
0.716248
0.716248
0.716248
0.716248
0.716247
0.716247
0.716247
0.716247
0.716247
0.716247
0.716247
0.716247
0.716247
0.716247
0.716247
0.716247
0.716247
0.716247
0.716247
0.716248
0.713808
0.713806
0.713806
0.713806
0.713806
0.713806
0.713806
0.713806
0.713806
0.713806
0.713806
0.713806
0.713806
0.713806
0.713806
0.713806
0.713806
0.713806
0.713807
0.713808
0.706264
0.70626
0.70626
0.70626
0.70626
0.70626
0.70626
0.70626
0.70626
0.70626
0.70626
0.70626
0.70626
0.70626
0.70626
0.70626
0.70626
0.706261
0.706261
0.706264
0.70795
0.707949
0.707949
0.707949
0.707949
0.707949
0.707949
0.70795
0.70795
0.70795
0.70795
0.70795
0.707951
0.707951
0.707951
0.707951
0.707951
0.707951
0.707951
0.707952
0.711492
0.71149
0.71149
0.71149
0.711489
0.711489
0.711489
0.711489
0.711489
0.711489
0.711489
0.711489
0.71149
0.71149
0.71149
0.71149
0.71149
0.71149
0.71149
0.711493
0.698178
0.698178
0.698178
0.698178
0.698177
0.698177
0.698177
0.698177
0.698177
0.698177
0.698177
0.698177
0.698177
0.698178
0.698178
0.698179
0.698179
0.698179
0.69818
0.698179
0.700268
0.700267
0.700266
0.700266
0.700266
0.700266
0.700266
0.700266
0.700266
0.700266
0.700266
0.700266
0.700266
0.700266
0.700267
0.700267
0.700267
0.700267
0.700268
0.700269
0.703316
0.703315
0.703315
0.703315
0.703314
0.703314
0.703314
0.703314
0.703314
0.703314
0.703314
0.703314
0.703315
0.703315
0.703315
0.703315
0.703315